[Molden Format]
[Atoms] (Angs)
  C      1    6      0.00000000      0.00000000      0.00000000
[GTO]
1    0
S    9    1.000000
   3.39800000E+04    9.10000000E-05 
   5.08900000E+03    7.04000000E-04 
   1.15700000E+03    3.69300000E-03 
   3.26600000E+02    1.53600000E-02 
   1.06100000E+02    5.29290000E-02 
   3.81100000E+01    1.47043000E-01 
   1.47500000E+01    3.05631000E-01 
   6.03500000E+00    3.99345000E-01 
   2.53000000E+00    2.17051000E-01 
S    9    1.000000
   3.39800000E+04   -1.90000000E-05 
   5.08900000E+03   -1.51000000E-04 
   1.15700000E+03   -7.85000000E-04 
   3.26600000E+02   -3.32400000E-03 
   1.06100000E+02   -1.15120000E-02 
   3.81100000E+01   -3.41600000E-02 
   1.47500000E+01   -7.71730000E-02 
   6.03500000E+00   -1.41493000E-01 
   2.53000000E+00   -1.18019000E-01 
S    1    1.000000
   7.35500000E-01    1.00000000E+00 
S    1    1.000000
   2.90500000E-01    1.00000000E+00 
S    1    1.000000
   1.11100000E-01    1.00000000E+00 
P    3    1.000000
   3.45100000E+01    5.37800000E-03 
   7.91500000E+00    3.61320000E-02 
   2.36800000E+00    1.42493000E-01 
P    1    1.000000
   8.13200000E-01    1.00000000E+00 
P    1    1.000000
   2.89000000E-01    1.00000000E+00 
P    1    1.000000
   1.00700000E-01    1.00000000E+00 
D    1    1.000000
   1.84800000E+00    1.00000000E+00 
D    1    1.000000
   6.49000000E-01    1.00000000E+00 
D    1    1.000000
   2.28000000E-01    1.00000000E+00 
F    1    1.000000
   1.41900000E+00    1.00000000E+00 
F    1    1.000000
   4.85000000E-01    1.00000000E+00 
G    1    1.000000
   1.01100000E+00    1.00000000E+00 
S    1    1.000000
   4.14500000E-02    1.00000000E+00 
P    1    1.000000
   3.21800000E-02    1.00000000E+00 
D    1    1.000000
   7.66000000E-02    1.00000000E+00 
F    1    1.000000
   1.87000000E-01    1.00000000E+00 
G    1    1.000000
   4.24000000E-01    1.00000000E+00 

[MO]
Sym=X
Ene= -11.364754
Spin=Alpha
Occup=1
     1    9.946535573965e-01
     2    2.089003915028e-03
     3    3.769884890349e-02
     4   -4.318121896239e-02
     5    2.448988390303e-03
     6   -1.074820950039e-06
     7   -3.269178874911e-06
     8    4.585965383350e-08
     9    1.429395733316e-06
    10    4.219573937819e-06
    11   -1.234274326764e-07
    12   -1.877883631067e-07
    13    2.587230521959e-07
    14    1.076645008379e-07
    15   -6.029529034732e-07
    16   -1.512533911876e-06
    17    8.998289279557e-08
    18   -2.091233899249e-03
    19   -9.576621376384e-04
    20   -2.474300690817e-03
    21    5.868511321238e-04
    22    1.740682173958e-03
    23   -6.661236625515e-04
    24    1.309167103293e-02
    25    7.547926154785e-03
    26    1.496503988047e-02
    27   -2.869978279665e-03
    28   -8.512798486768e-03
    29    3.257671262658e-03
    30   -5.624626552415e-04
    31   -1.959276504407e-03
    32   -9.044407379930e-05
    33   -7.231260394876e-04
    34   -2.144903779749e-03
    35    8.208105469282e-04
    36   -5.452033277212e-07
    37   -1.704544110675e-06
    38    3.762875781057e-08
    39   -2.359233146611e-07
    40   -7.668394309740e-07
    41    2.337196515300e-08
    42   -2.438747576935e-07
    43   -7.712786961295e-07
    44    1.016950177978e-08
    45    8.885121457896e-09
    46   -6.500804789550e-08
    47   -5.804852231487e-07
    48   -4.410835730097e-08
    49   -5.480697844185e-09
    50   -2.723874383727e-07
    51   -2.144331354115e-09
    52   -3.227821068721e-08
    53   -2.844570745996e-07
    54   -3.933774767072e-08
    55    2.480736171522e-08
    56   -3.589291011934e-03
    57   -6.011809710110e-04
    58   -4.602357003188e-03
    59    1.015186918359e-03
    60    3.011199300760e-03
    61    1.010228129366e-03
    62   -1.146695339771e-03
    63    3.016169499817e-03
    64   -1.154225954797e-03
    65   -1.226424670514e-03
    66   -2.413175556912e-03
    67   -1.521824638448e-03
    68   -5.212331856306e-04
    69    1.342328392088e-03
    70    4.614495713317e-04
    71    3.985447254738e-04
    72    6.445240777039e-08
    73    1.643426361853e-07
    74   -9.816515432627e-09
    75   -2.760597975392e-04
    76   -1.404386367405e-04
    77   -3.218893789895e-04
    78    7.021050138423e-05
    79    2.082554767561e-04
    80   -7.969495275052e-05
    81    3.944406847027e-07
    82    9.661260760705e-07
    83   -6.130050475131e-08
    84    1.823380280536e-07
    85    4.287463143493e-07
    86   -2.298705516545e-08
    87    1.757108945158e-07
    88    4.256848600790e-07
    89   -3.238631722281e-08
    90    6.374491397517e-09
    91    3.287209675434e-03
    92    4.770607678315e-03
    93    2.785151779854e-03
    94    5.033266338887e-04
    95    1.492944319283e-03
    96    5.021567178073e-04
    97   -5.699909494478e-04
    98    1.494116943392e-03
    99   -5.717677190930e-04
   100    2.359186466627e-03
   101    1.774288361129e-03
   102    2.212480914682e-03
   103   -2.568931709456e-04
   104    6.666455308664e-04
   105    2.268509219830e-04
Sym=X
Ene= -0.725504
Spin=Alpha
Occup=1
     1   -4.032015296823e-03
     2    3.379961341345e-01
     3    2.200668130435e-01
     4    7.396494700754e-01
     5    1.881324201254e-01
     6    4.124097036152e-06
     7    1.255154547840e-05
     8    1.597045991471e-09
     9    6.705763510235e-06
    10    2.067534251147e-05
    11    1.781076916326e-07
    12    8.654913972000e-06
    13    2.506814600306e-05
    14    4.136843237473e-09
    15    2.769157048923e-06
    16    7.047907490783e-06
    17   -8.596329399557e-07
    18    4.789388573449e-03
    19    1.879970754868e-03
    20    5.772549295620e-03
    21   -1.506192253141e-03
    22   -4.467599263741e-03
    23    1.709650980029e-03
    24   -3.118679996218e-02
    25   -2.203701483866e-02
    26   -3.427869036224e-02
    27    4.736765742506e-03
    28    1.405004192265e-02
    29   -5.376643860216e-03
    30    3.409875381123e-02
    31    3.141881221827e-02
    32    3.500424528069e-02
    33   -1.387294878899e-03
    34   -4.115097073260e-03
    35    1.574771497112e-03
    36   -2.430446718982e-07
    37   -2.509684961793e-07
    38   -1.547659447471e-08
    39    1.087296918521e-07
    40   -2.357537470244e-07
    41    1.544401020430e-07
    42   -1.262227842405e-07
    43   -3.496152851357e-07
    44   -1.870422463855e-07
    45    2.372227128682e-07
    46   -4.658428710327e-07
    47    2.403414388695e-07
    48    1.379770569866e-07
    49    3.490343479696e-07
    50   -1.827838882069e-07
    51    4.363853134566e-07
    52   -3.035466376414e-07
    53   -4.552805635530e-07
    54   -3.673560926209e-07
    55    5.590240644316e-07
    56    5.990212220046e-03
    57    6.628353800075e-04
    58    7.774251205931e-03
    59   -1.793354893403e-03
    60   -5.319367482681e-03
    61   -1.817669582063e-03
    62    2.063204572243e-03
    63   -5.294995061032e-03
    64    2.026276217168e-03
    65    1.949875716442e-03
    66    3.956729536274e-03
    67    2.478048006588e-03
    68    8.814238745433e-04
    69   -2.400080172544e-03
    70   -7.655124073257e-04
    71    1.776792006620e-03
    72   -3.801419688641e-08
    73    5.738488132095e-08
    74    3.311899165707e-08
    75    5.271998429505e-03
    76    2.778028868824e-03
    77    6.114784931545e-03
    78   -1.291116801668e-03
    79   -3.829590439355e-03
    80    1.465524804368e-03
    81   -7.970645319882e-08
    82    3.573869106314e-06
    83    1.442216128986e-07
    84    2.065615440159e-06
    85    4.635598606649e-07
    86    1.593747807672e-06
    87   -3.430997328069e-07
    88   -5.893937991954e-07
    89   -1.640492517524e-06
    90    2.178760548303e-06
    91   -1.739663614777e-02
    92   -1.974667488800e-02
    93   -1.670040153055e-02
    94   -7.230415452669e-04
    95   -2.144591009542e-03
    96   -8.699757574454e-04
    97    9.874760198518e-04
    98   -1.997336725495e-03
    99    7.643453373048e-04
   100   -1.086202350738e-02
   101   -1.042430633426e-02
   102   -1.062275713727e-02
   103    1.922874760862e-04
   104   -1.087136258158e-03
   105   -1.027634476976e-04
Sym=X
Ene= -0.358351
Spin=Alpha
Occup=1
     1    5.936798383660e-08
     2   -1.313921701065e-07
     3   -2.301800908456e-07
     4    1.231578429291e-06
     5   -4.150914455390e-06
     6   -1.069799363076e-01
     7    4.093886339522e-02
     8    1.214320095660e-01
     9   -2.225826019019e-01
    10    8.517727280255e-02
    11    2.526514400637e-01
    12   -2.366298220919e-01
    13    9.055335853201e-02
    14    2.685967935751e-01
    15   -1.470117809013e-01
    16    5.625959060024e-02
    17    1.668730736325e-01
    18    1.369251075659e-06
    19   -1.497659813306e-06
    20    1.308500210260e-07
    21    1.999977783462e-06
    22   -9.349451808867e-07
    23   -2.586159068636e-06
    24    2.483488022321e-06
    25   -2.926714840071e-06
    26   -5.503778908062e-08
    27    3.674894089598e-06
    28   -1.729009928636e-06
    29   -4.817463438040e-06
    30    8.523106139866e-06
    31   -9.153545109943e-06
    32    6.738333416021e-07
    33    1.223337182280e-05
    34   -5.713655053878e-06
    35   -1.593256001545e-05
    36   -2.793924209147e-03
    37    1.957519268752e-03
    38    2.280935524791e-03
    39   -1.931407990993e-03
    40   -4.527397851779e-04
    41   -1.342893454974e-03
    42    2.235514901865e-03
    43   -8.554820842051e-04
    44    2.192325102675e-03
    45    1.830155918149e-03
    46   -2.808503091653e-02
    47    1.275271751937e-02
    48    2.986879372862e-02
    49   -1.409946218939e-02
    50    2.704900614027e-03
    51    8.023384594675e-03
    52   -4.692735809862e-03
    53    1.795697976542e-03
    54    1.600408888670e-02
    55    4.131498143422e-03
    56    8.692828398936e-07
    57   -1.096432828764e-06
    58    1.455572968469e-07
    59    8.708876893841e-07
    60   -2.565411237239e-07
    61    9.018502592353e-07
    62   -1.170876491173e-06
    63   -3.728352442977e-07
    64   -9.912627639749e-07
    65    1.252874674453e-07
    66    1.443297888711e-07
    67   -6.958529939497e-08
    68   -3.565633487211e-07
    69   -4.227074119817e-07
    70    1.604000245758e-07
    71    3.246198484924e-06
    72   -2.054553494954e-02
    73    7.863299996382e-03
    74    2.332199352587e-02
    75    1.010003564225e-05
    76   -1.228318731993e-05
    77    5.469401227052e-09
    78    1.517733257299e-05
    79   -7.383497668771e-06
    80   -1.980529553808e-05
    81   -2.646903528157e-02
    82    1.179870497880e-02
    83    2.837042039652e-02
    84   -1.311927513355e-02
    85    2.779695146493e-03
    86    8.245467678658e-03
    87   -5.285767874382e-03
    88    2.022537456520e-03
    89    1.489136609596e-02
    90    3.440584358329e-03
    91    4.131926755705e-07
    92   -1.008812754964e-06
    93    8.872267720300e-08
    94    5.047844196747e-07
    95    1.793676241743e-07
    96    6.170863160464e-07
    97   -8.068181124704e-07
    98   -1.773992975467e-07
    99   -2.897237013260e-07
   100    3.763306421177e-07
   101   -3.129259874222e-07
   102    3.796555064550e-07
   103    1.382106796728e-07
   104   -8.410646637839e-07
   105   -4.559760400283e-07
Sym=X
Ene= 0.018574
Spin=Alpha
Occup=0
     1    1.167651023955e-07
     2   -2.429471502995e-07
     3   -1.297699739045e-06
     4    7.337948720780e-06
     5   -2.239174030581e-06
     6    6.836817176675e-02
     7   -1.694269879589e-02
     8    6.594324767224e-02
     9    1.887493251775e-01
    10   -4.677506960771e-02
    11    1.820547483158e-01
    12    3.989755523088e-02
    13   -9.887136181299e-03
    14    3.848223217444e-02
    15   -1.197168946992e-01
    16    2.966797570012e-02
    17   -1.154711734437e-01
    18   -9.548213371995e-07
    19    6.546555590333e-07
    20    1.487790063675e-07
    21   -1.441943551493e-06
    22   -3.811659704085e-07
    23   -1.559200693767e-06
    24   -5.578934487382e-07
    25   -2.474458119113e-07
    26   -6.708293586565e-07
    27   -3.206155836974e-07
    28   -1.887914779412e-07
    29   -3.149955602587e-07
    30    2.621506347732e-06
    31    3.653872026930e-06
    32    2.732433043649e-06
    33   -1.045239543173e-06
    34   -2.799228779895e-07
    35   -1.126317501017e-06
    36    6.001885230446e-03
    37   -1.879074154032e-03
    38    5.273825335442e-03
    39    3.233936532834e-03
    40   -3.132371421692e-05
    41    4.469031595127e-03
    42    4.258671952250e-03
    43   -1.299929922581e-03
    44    3.449040646418e-03
    45   -3.314169118185e-04
    46    1.048543590158e-01
    47   -2.670944561169e-02
    48    1.001821954976e-01
    49    4.790967501082e-02
    50   -1.044780243439e-02
    51    4.870812557640e-02
    52    4.980584390759e-02
    53   -1.279523637041e-02
    54    4.682073473697e-02
    55   -6.132515240932e-04
    56   -1.233607009762e-06
    57    7.143840507035e-07
    58    2.069046651236e-07
    59   -1.119935635814e-06
    60   -3.169395250031e-07
    61   -1.141696761857e-06
    62   -1.272932367152e-06
    63   -2.575757136269e-07
    64   -1.184025638627e-06
    65   -2.150198814601e-07
    66   -3.322715980708e-07
    67    2.987838475465e-07
    68   -5.982322318827e-07
    69   -1.080016103081e-07
    70   -5.428890627732e-07
    71   -2.002131931213e-05
    72    4.351262086783e-01
    73   -1.078312747509e-01
    74    4.196936608643e-01
    75   -9.201836076784e-07
    76    9.671936696432e-06
    77    6.728100832932e-06
    78   -9.368607118035e-06
    79   -2.467447375256e-06
    80   -1.015504984403e-05
    81    1.487667926944e-01
    82   -3.907550085722e-02
    83    1.405855728323e-01
    84    6.963062270485e-02
    85   -1.291338901549e-02
    86    7.477189517356e-02
    87    7.540860920863e-02
    88   -2.006647653521e-02
    89    6.902066632784e-02
    90   -1.868692081281e-03
    91   -2.189060978056e-06
    92    3.446347043502e-07
    93   -3.543164454157e-07
    94   -1.416340482853e-06
    95   -5.792640638282e-07
    96   -1.516281809152e-06
    97   -1.787016315434e-06
    98   -2.821048637725e-07
    99   -1.379172482276e-06
   100   -8.304366460515e-07
   101   -8.764758676702e-07
   102    1.446500581637e-07
   103   -9.288459252849e-07
   104   -9.505668172589e-08
   105   -8.314170031494e-07
Sym=X
Ene= 0.018574
Spin=Alpha
Occup=0
     1    3.069246387484e-06
     2    7.106236306993e-07
     3   -3.739245496493e-05
     4    2.682578103807e-04
     5   -6.875029211083e-05
     6    2.849695250633e-02
     7    9.199362906418e-02
     8   -5.909045097119e-03
     9    7.867347041310e-02
    10    2.539734758533e-01
    11   -1.631346307186e-02
    12    1.663057732378e-02
    13    5.368581142923e-02
    14   -3.448535694940e-03
    15   -4.989833853775e-02
    16   -1.610834905002e-01
    17    1.034664256700e-02
    18   -1.042174470871e-06
    19   -4.276735404482e-06
    20   -6.971484245327e-07
    21   -1.339903493009e-06
    22    1.903233218594e-07
    23    2.500134319408e-07
    24   -1.411172060914e-05
    25   -1.402982753506e-05
    26   -1.431874525683e-05
    27    1.840185787096e-07
    28    1.237003379697e-06
    29   -6.572503454712e-07
    30    1.085655927077e-04
    31    1.081681308593e-04
    32    1.080612861265e-04
    33    2.726107953475e-07
    34    3.179418889428e-06
    35   -1.366063839538e-06
    36    2.501657148005e-03
    37    1.020273369813e-02
    38   -4.725656503044e-04
    39    2.266296473348e-03
    40    3.875836441784e-03
    41    5.516731593034e-04
    42    8.567122050147e-04
    43    3.352404770298e-03
    44   -1.261177808442e-03
    45    1.255808771128e-03
    46    4.370447397646e-02
    47    1.450227749920e-01
    48   -8.976929593551e-03
    49    2.166862070575e-02
    50    6.358498213619e-02
    51   -2.602719821401e-03
    52    1.906031193834e-02
    53    6.261642424704e-02
    54   -5.957233912798e-03
    55    2.323757286138e-03
    56   -3.832491427081e-06
    57   -8.048620351646e-06
    58   -3.337959934343e-06
    59   -1.135750297687e-06
    60   -1.115171885648e-07
    61   -1.241486939845e-06
    62    4.257951842285e-07
    63   -9.753261148505e-08
    64    3.506290029522e-07
    65   -3.460756470115e-06
    66   -2.072818465234e-06
    67   -3.260277650393e-06
    68    1.096050192321e-07
    69   -1.000885999464e-07
    70   -5.013359087273e-07
    71   -6.915879870261e-04
    72    1.813657313109e-01
    73    5.854864971839e-01
    74   -3.760701496662e-02
    75    1.901177116235e-04
    76    1.680715998893e-04
    77    1.927708001990e-04
    78   -9.398498439915e-06
    79   -3.573556379478e-07
    80    2.501972293472e-06
    81    6.200757624980e-02
    82    2.121658563862e-01
    83   -1.259727067884e-02
    84    3.420093760855e-02
    85    9.101003181488e-02
    86   -1.331447571283e-03
    87    2.625299623724e-02
    88    8.805863167776e-02
    89   -1.155321910973e-02
    90    7.080867857346e-03
    91   -2.646878396928e-05
    92   -3.231294705534e-05
    93   -2.582070976456e-05
    94   -1.455749819878e-06
    95   -2.873364196959e-07
    96   -1.948335947681e-06
    97    8.515061037714e-07
    98   -2.182073720448e-07
    99    4.772922140379e-07
   100   -1.712756082999e-05
   101   -1.519222075420e-05
   102   -1.668709612408e-05
   103   -1.185525116996e-08
   104   -3.579235642566e-07
   105   -6.037588885333e-07
Sym=X
Ene= 0.048549
Spin=Alpha
Occup=0
     1   -2.257860839816e-02
     2   -8.469946259945e-02
     3    4.148768140348e-01
     4   -3.364324327250e+00
     5    9.958224993288e-01
     6    3.886942356667e-06
     7    1.158959158743e-05
     8   -7.571670371985e-07
     9    8.347835344075e-06
    10    2.686328909815e-05
    11   -3.825891959775e-07
    12    1.056521935670e-05
    13    2.695809333203e-05
    14   -4.805967919556e-06
    15   -4.857512232970e-06
    16   -2.517005917923e-05
    17   -8.437973523246e-06
    18    2.909721693066e-02
    19    3.122163105316e-02
    20    2.837934920582e-02
    21    1.099777023033e-03
    22    3.262169289704e-03
    23   -1.248359913156e-03
    24    1.420252617370e-01
    25    1.326603053119e-01
    26    1.451898077387e-01
    27   -4.848097117110e-03
    28   -1.438046745945e-02
    29    5.503094298225e-03
    30   -1.378173510623e+00
    31   -1.393906531298e+00
    32   -1.372856895048e+00
    33   -8.144906084627e-03
    34   -2.415921599130e-02
    35    9.245301239473e-03
    36    3.946257844515e-07
    37    1.538255264236e-06
    38    5.831123397617e-08
    39    3.167777920566e-07
    40    6.073659664426e-07
    41    1.244854039734e-07
    42    1.455735383022e-07
    43    5.417947978765e-07
    44   -9.974371415057e-08
    45    1.499902294731e-07
    46    2.135645381017e-06
    47    1.036254258937e-05
    48    1.827300626663e-06
    49    1.398725496169e-06
    50    4.387982794885e-06
    51    1.140590438314e-06
    52    8.532769406444e-07
    53    4.178793301478e-06
    54    4.218329976513e-07
    55    4.645857021163e-07
    56    7.389723277708e-02
    57    7.982320817080e-02
    58    7.188188590796e-02
    59    2.017992420473e-03
    60    5.985786916454e-03
    61    1.998687665700e-03
    62   -2.268718244895e-03
    63    6.005136880546e-03
    64   -2.298035730617e-03
    65    4.500637075978e-02
    66    4.262172346350e-02
    67    4.442099162935e-02
    68   -1.047363256929e-03
    69    2.660104399959e-03
    70    9.314551755586e-04
    71    7.641077766535e+00
    72    2.143800430693e-05
    73    7.293010074125e-05
    74    3.746332012526e-06
    75   -2.241311086611e+00
    76   -2.218806415328e+00
    77   -2.248915907379e+00
    78    1.165049773872e-02
    79    3.455751743731e-02
    80   -1.322443941772e-02
    81    5.781962404007e-06
    82    2.315787523107e-05
    83    2.897139009311e-06
    84    3.055309853878e-06
    85    1.006500014468e-05
    86    1.610563901217e-06
    87    2.529500860154e-06
    88    9.832883667460e-06
    89    8.755354260640e-07
    90    5.382489832487e-07
    91    3.502495595949e-01
    92    3.585751721911e-01
    93    3.474773375286e-01
    94    2.790747167375e-03
    95    8.277882426291e-03
    96    2.852492681128e-03
    97   -3.237869912111e-03
    98    8.215994855196e-03
    99   -3.144100136252e-03
   100    2.075174061596e-01
   101    2.044591373799e-01
   102    2.066908969376e-01
   103   -1.343234728069e-03
   104    3.755785475934e-03
   105    1.155363683005e-03
Sym=X
Ene= 0.079430
Spin=Alpha
Occup=0
     1   -8.343443892636e-08
     2    1.726576374698e-07
     3   -2.486170743767e-06
     4    1.943362784958e-05
     5   -7.928516444504e-06
     6    1.939296997884e-02
     7   -7.421143958269e-03
     8   -2.201268384825e-02
     9   -1.974978353118e-01
    10    7.557795105876e-02
    11    2.241779746310e-01
    12    5.951362534557e-01
    13   -2.277444801485e-01
    14   -6.755330485875e-01
    15    1.636524249255e+00
    16   -6.262587751641e-01
    17   -1.857601765743e+00
    18   -1.305079388675e-07
    19   -1.413902761259e-07
    20    3.437414436477e-08
    21   -4.872166053969e-08
    22   -1.272660864226e-07
    23    8.579108805239e-08
    24   -1.870985478042e-06
    25    7.334003136652e-07
    26   -1.394156266780e-06
    27   -1.595865093153e-06
    28    1.325812875100e-06
    29    1.979009444135e-06
    30    5.384589271776e-06
    31    1.241270331378e-05
    32    6.947804800173e-06
    33   -4.477613820977e-06
    34    3.323145904039e-06
    35    5.585071730079e-06
    36   -1.838639767901e-02
    37    6.922334315744e-03
    38    2.098419369308e-02
    39   -8.135355550601e-03
    40    3.265771536759e-03
    41    9.686887839024e-03
    42   -8.668739266137e-03
    43    3.317323404069e-03
    44    9.234362610818e-03
    45   -2.342649757192e-04
    46   -4.103670709490e-01
    47    1.562575247594e-01
    48    4.665856833208e-01
    49   -1.829227382715e-01
    50    7.104712362572e-02
    51    2.107390449495e-01
    52   -1.865828868436e-01
    53    7.140089250294e-02
    54    2.076337698194e-01
    55   -1.607570361098e-03
    56   -1.324768031631e-08
    57   -9.897278320846e-07
    58    1.705554616203e-08
    59    3.549322479602e-07
    60   -4.879887555478e-07
    61    3.449612034029e-07
    62   -4.007789062846e-07
    63   -4.533622896768e-07
    64   -4.542604466714e-07
    65   -3.516197909066e-07
    66    4.907579882978e-08
    67   -3.495894806216e-07
    68   -2.297323230936e-07
    69   -1.238714048519e-07
    70    2.277740933886e-07
    71   -4.164371327207e-05
    72   -1.006769261146e+00
    73    3.852668919065e-01
    74    1.142773715251e+00
    75    1.518870254683e-05
    76    9.114660440345e-06
    77    1.420020596820e-05
    78    3.812993044677e-06
    79   -3.090496044810e-06
    80   -4.685397591570e-06
    81   -6.996581020418e-01
    82    2.689071697331e-01
    83    7.930075584942e-01
    84   -3.137905515815e-01
    85    1.185178284865e-01
    86    3.515461465911e-01
    87   -3.083280930547e-01
    88    1.179898549155e-01
    89    3.561804886967e-01
    90    2.399179045567e-03
    91   -9.892852669083e-07
    92   -3.625671698675e-06
    93   -1.374175035993e-06
    94    1.064072777466e-06
    95   -9.151813739709e-07
    96    1.060338028184e-06
    97   -1.301969434197e-06
    98   -9.031127945172e-07
    99   -1.310553952588e-06
   100   -1.355151841781e-06
   101   -6.926589510512e-07
   102   -1.471345149231e-06
   103   -5.904119000181e-07
   104   -4.002444932141e-07
   105    4.873694514979e-07
Sym=X
Ene= 0.095070
Spin=Alpha
Occup=0
     1   -4.505366261957e-08
     2    4.133365915534e-07
     3   -2.055428246592e-06
     4    1.231757167067e-05
     5   -3.462506175255e-06
     6   -5.521203320294e-02
     7    1.368232321759e-02
     8   -5.325389639124e-02
     9    1.845724940241e-01
    10   -4.573965004026e-02
    11    1.780263709245e-01
    12   -8.131811785082e-01
    13    2.015177400281e-01
    14   -7.843408616600e-01
    15   -2.191891625350e+00
    16    5.431816473067e-01
    17   -2.114153504605e+00
    18    2.336362076981e-07
    19   -3.381230253104e-07
    20    3.492778160655e-08
    21    5.543318932634e-07
    22    1.589204445834e-07
    23    5.929434447260e-07
    24    1.068981594885e-06
    25   -1.953415262574e-06
    26   -1.480048696813e-06
    27    2.616007799349e-06
    28    7.534320198107e-07
    29    2.804009792259e-06
    30    9.818558219721e-06
    31    9.144408367809e-07
    32    2.691420527771e-06
    33    7.850118187261e-06
    34    2.163450841620e-06
    35    8.424220286335e-06
    36    2.163079567289e-02
    37   -5.084044193506e-03
    38    2.122712909623e-02
    39    9.285663506913e-03
    40   -2.844461130109e-03
    41    8.003988993123e-03
    42    8.562655915217e-03
    43   -1.949392874194e-03
    44    8.723645216501e-03
    45    2.338299024649e-04
    46    5.055830186909e-01
    47   -1.243326715187e-01
    48    4.889118271398e-01
    49    2.247590498949e-01
    50   -5.758170790755e-02
    51    2.134868381821e-01
    52    2.222530877010e-01
    53   -5.447935544178e-02
    54    2.159811880595e-01
    55    8.104613827002e-04
    56   -6.038042771992e-07
    57   -1.248645589990e-07
    58    1.904069110923e-07
    59   -2.317583292321e-07
    60   -3.772070359783e-09
    61   -2.032846772067e-07
    62   -1.812673998434e-07
    63   -8.546636142542e-08
    64   -2.970440115830e-07
    65   -1.302428784691e-07
    66   -7.966525446491e-08
    67   -2.026916895021e-08
    68   -4.287554235018e-08
    69   -4.629403933432e-08
    70   -4.891119566566e-08
    71   -2.153049838654e-05
    72    1.068716571708e+00
    73   -2.648429195440e-01
    74    1.030813359612e+00
    75    5.576603922211e-06
    76    7.227395057589e-06
    77    7.846305976482e-06
    78   -1.304855520189e-06
    79   -4.707316487880e-07
    80   -1.347373221389e-06
    81    8.751756333881e-01
    82   -2.163405854055e-01
    83    8.448470805770e-01
    84    3.906321308607e-01
    85   -9.786629835789e-02
    86    3.749161927768e-01
    87    3.892187677525e-01
    88   -9.611656783661e-02
    89    3.763230155080e-01
    90    4.571002809054e-04
    91   -2.743206327855e-06
    92   -5.948502957852e-07
    93   -5.941126869914e-07
    94   -1.214028008838e-06
    95   -2.155847462866e-07
    96   -1.153859981270e-06
    97   -1.153375966190e-06
    98   -3.840625328497e-07
    99   -1.395859215767e-06
   100   -8.067322015401e-07
   101   -8.970883509533e-07
   102   -4.335486248794e-07
   103   -4.383304603575e-07
   104   -1.930305101910e-07
   105   -4.253730548493e-07
Sym=X
Ene= 0.095070
Spin=Alpha
Occup=0
     1   -1.491448250627e-06
     2    3.943574645698e-06
     3   -1.999426656493e-05
     4    7.718340212082e-05
     5    4.147342546206e-06
     6   -2.301296190321e-02
     7   -7.429111839202e-02
     8    4.771830134455e-03
     9    7.693194551302e-02
    10    2.483536348402e-01
    11   -1.595216886659e-02
    12   -3.389429323986e-01
    13   -1.094184937374e+00
    14    7.028117684810e-02
    15   -9.136048161714e-01
    16   -2.949322973979e+00
    17    1.894400034840e-01
    18    4.492228576798e-07
    19    1.437467387662e-06
    20    4.307964082308e-07
    21    3.106885223239e-07
    22   -4.738004509787e-07
    23    1.882000170601e-07
    24   -1.056285178192e-05
    25   -4.058945865069e-06
    26   -1.150189634698e-05
    27    2.974788510620e-06
    28    7.293305685666e-07
    29   -1.145227133669e-06
    30    1.565284351597e-05
    31    3.468207368077e-05
    32    1.311294715731e-05
    33    8.432403124514e-06
    34    1.354878183910e-06
    35   -2.896395907883e-06
    36    9.015959418843e-03
    37    2.760494996800e-02
    38   -1.902066901562e-03
    39    3.222427365977e-03
    40    1.283000094529e-02
    41   -1.388967819274e-03
    42    4.216954513964e-03
    43    1.319930663010e-02
    44   -1.099170700714e-04
    45   -8.860398064133e-04
    46    2.107326733162e-01
    47    6.750916625109e-01
    48   -4.380919263826e-02
    49    9.143629045341e-02
    50    3.035901285773e-01
    51   -2.145796666808e-02
    52    9.488337151425e-02
    53    3.048701658986e-01
    54   -1.702471421536e-02
    55   -3.071043344236e-03
    56    7.528455629625e-07
    57   -4.683104953032e-07
    58    1.125123910704e-06
    59   -5.481625351193e-07
    60   -5.853132590572e-07
    61   -4.020361330593e-07
    62    3.623997020016e-07
    63   -6.104765829942e-07
    64    4.728079372800e-07
    65    5.998295629800e-08
    66    5.337096997395e-07
    67    9.456181771231e-08
    68    2.806888451597e-07
    69   -1.911354326837e-07
    70   -2.649386773444e-07
    71   -1.030477338634e-04
    72    4.454534175984e-01
    73    1.438024639697e+00
    74   -9.236652355145e-02
    75    3.834890209481e-05
    76    3.361869325864e-05
    77    3.948613763901e-05
    78   -2.631733633396e-06
    79   -2.802114736701e-06
    80    2.020846438173e-06
    81    3.647829862102e-01
    82    1.174668673137e+00
    83   -7.570299530611e-02
    84    1.615532168310e-01
    85    5.262752702192e-01
    86   -3.490776826008e-02
    87    1.634973585652e-01
    88    5.269972102978e-01
    89   -3.240742903884e-02
    90   -1.732044158726e-03
    91   -6.513538025431e-06
    92   -1.127970119446e-05
    93   -5.619821578261e-06
    94   -1.641411038035e-06
    95   -8.221494050760e-07
    96   -1.353284532114e-06
    97    6.424933747480e-07
    98   -8.617207343057e-07
    99    8.601206200386e-07
   100   -5.259015088186e-06
   101   -3.622191636552e-06
   102   -5.145564893539e-06
   103    5.160294356244e-07
   104   -2.307124245555e-07
   105   -7.578406993584e-07
Sym=X
Ene= 0.207547
Spin=Alpha
Occup=0
     1    4.555418877409e-02
     2   -3.081667694551e-02
     3   -1.116951354134e+00
     4    7.674267546079e+00
     5   -6.413916236711e+00
     6    2.007920781262e-06
     7    6.099472905868e-06
     8   -3.904799752107e-07
     9    1.550011264450e-05
    10    4.511283322371e-05