[Molden Format]
[Atoms] (Angs)
  C      1    6      1.36681328      0.27876940     -0.00000000
  C      2    6      0.44164871      1.32305947     -0.00000000
  C      3    6     -0.92491848      1.04428421     -0.00000000
  C      4    6     -1.36681328     -0.27876940      0.00000000
  C      5    6     -0.44164871     -1.32305947      0.00000000
  C      6    6      0.92491848     -1.04428421      0.00000000
  H      7    1      0.79022161      2.36600642     -0.00000000
  H      8    1     -1.65420282      1.86735212     -0.00000000
  H      9    1     -0.79022161     -2.36600642      0.00000000
  H     10    1      1.65420282     -1.86735212      0.00000000
  C     11    6     -2.87586071     -0.58678089      0.00000000
  C     12    6     -3.80078811      0.36325183     -0.00000000
  H     13    1     -3.12383414     -1.65668319      0.00000000
  H     14    1     -4.87694183      0.14397476     -0.00000000
  H     15    1     -3.55281468      1.43315415     -0.00000000
  C     16    6      2.87586071      0.58678089     -0.00000000
  C     17    6      3.80078811     -0.36325183      0.00000000
  H     18    1      3.12383414      1.65668319     -0.00000000
  H     19    1      4.87694183     -0.14397476      0.00000000
  H     20    1      3.55281468     -1.43315415      0.00000000
[GTO]
1    0
S    3    1.000000
   7.16168370E+01    1.54328970E-01 
   1.30450960E+01    5.35328140E-01 
   3.53051220E+00    4.44634540E-01 
SP   3    1.000000
   2.94124940E+00   -9.99672300E-02   1.55916270E-01 
   6.83483100E-01    3.99512830E-01   6.07683720E-01 
   2.22289900E-01    7.00115470E-01   3.91957390E-01 

2    0
S    3    1.000000
   7.16168370E+01    1.54328970E-01 
   1.30450960E+01    5.35328140E-01 
   3.53051220E+00    4.44634540E-01 
SP   3    1.000000
   2.94124940E+00   -9.99672300E-02   1.55916270E-01 
   6.83483100E-01    3.99512830E-01   6.07683720E-01 
   2.22289900E-01    7.00115470E-01   3.91957390E-01 

3    0
S    3    1.000000
   7.16168370E+01    1.54328970E-01 
   1.30450960E+01    5.35328140E-01 
   3.53051220E+00    4.44634540E-01 
SP   3    1.000000
   2.94124940E+00   -9.99672300E-02   1.55916270E-01 
   6.83483100E-01    3.99512830E-01   6.07683720E-01 
   2.22289900E-01    7.00115470E-01   3.91957390E-01 

4    0
S    3    1.000000
   7.16168370E+01    1.54328970E-01 
   1.30450960E+01    5.35328140E-01 
   3.53051220E+00    4.44634540E-01 
SP   3    1.000000
   2.94124940E+00   -9.99672300E-02   1.55916270E-01 
   6.83483100E-01    3.99512830E-01   6.07683720E-01 
   2.22289900E-01    7.00115470E-01   3.91957390E-01 

5    0
S    3    1.000000
   7.16168370E+01    1.54328970E-01 
   1.30450960E+01    5.35328140E-01 
   3.53051220E+00    4.44634540E-01 
SP   3    1.000000
   2.94124940E+00   -9.99672300E-02   1.55916270E-01 
   6.83483100E-01    3.99512830E-01   6.07683720E-01 
   2.22289900E-01    7.00115470E-01   3.91957390E-01 

6    0
S    3    1.000000
   7.16168370E+01    1.54328970E-01 
   1.30450960E+01    5.35328140E-01 
   3.53051220E+00    4.44634540E-01 
SP   3    1.000000
   2.94124940E+00   -9.99672300E-02   1.55916270E-01 
   6.83483100E-01    3.99512830E-01   6.07683720E-01 
   2.22289900E-01    7.00115470E-01   3.91957390E-01 

7    0
S    3    1.000000
   3.42525091E+00    1.54328970E-01 
   6.23913730E-01    5.35328140E-01 
   1.68855400E-01    4.44634540E-01 

8    0
S    3    1.000000
   3.42525091E+00    1.54328970E-01 
   6.23913730E-01    5.35328140E-01 
   1.68855400E-01    4.44634540E-01 

9    0
S    3    1.000000
   3.42525091E+00    1.54328970E-01 
   6.23913730E-01    5.35328140E-01 
   1.68855400E-01    4.44634540E-01 

10    0
S    3    1.000000
   3.42525091E+00    1.54328970E-01 
   6.23913730E-01    5.35328140E-01 
   1.68855400E-01    4.44634540E-01 

11    0
S    3    1.000000
   7.16168370E+01    1.54328970E-01 
   1.30450960E+01    5.35328140E-01 
   3.53051220E+00    4.44634540E-01 
SP   3    1.000000
   2.94124940E+00   -9.99672300E-02   1.55916270E-01 
   6.83483100E-01    3.99512830E-01   6.07683720E-01 
   2.22289900E-01    7.00115470E-01   3.91957390E-01 

12    0
S    3    1.000000
   7.16168370E+01    1.54328970E-01 
   1.30450960E+01    5.35328140E-01 
   3.53051220E+00    4.44634540E-01 
SP   3    1.000000
   2.94124940E+00   -9.99672300E-02   1.55916270E-01 
   6.83483100E-01    3.99512830E-01   6.07683720E-01 
   2.22289900E-01    7.00115470E-01   3.91957390E-01 

13    0
S    3    1.000000
   3.42525091E+00    1.54328970E-01 
   6.23913730E-01    5.35328140E-01 
   1.68855400E-01    4.44634540E-01 

14    0
S    3    1.000000
   3.42525091E+00    1.54328970E-01 
   6.23913730E-01    5.35328140E-01 
   1.68855400E-01    4.44634540E-01 

15    0
S    3    1.000000
   3.42525091E+00    1.54328970E-01 
   6.23913730E-01    5.35328140E-01 
   1.68855400E-01    4.44634540E-01 

16    0
S    3    1.000000
   7.16168370E+01    1.54328970E-01 
   1.30450960E+01    5.35328140E-01 
   3.53051220E+00    4.44634540E-01 
SP   3    1.000000
   2.94124940E+00   -9.99672300E-02   1.55916270E-01 
   6.83483100E-01    3.99512830E-01   6.07683720E-01 
   2.22289900E-01    7.00115470E-01   3.91957390E-01 

17    0
S    3    1.000000
   7.16168370E+01    1.54328970E-01 
   1.30450960E+01    5.35328140E-01 
   3.53051220E+00    4.44634540E-01 
SP   3    1.000000
   2.94124940E+00   -9.99672300E-02   1.55916270E-01 
   6.83483100E-01    3.99512830E-01   6.07683720E-01 
   2.22289900E-01    7.00115470E-01   3.91957390E-01 

18    0
S    3    1.000000
   3.42525091E+00    1.54328970E-01 
   6.23913730E-01    5.35328140E-01 
   1.68855400E-01    4.44634540E-01 

19    0
S    3    1.000000
   3.42525091E+00    1.54328970E-01 
   6.23913730E-01    5.35328140E-01 
   1.68855400E-01    4.44634540E-01 

20    0
S    3    1.000000
   3.42525091E+00    1.54328970E-01 
   6.23913730E-01    5.35328140E-01 
   1.68855400E-01    4.44634540E-01 

[MO]
Sym=X
Ene= -10.017938
Spin=Alpha
Occup=1
     1   -6.986698892349e-01
     2   -3.188438168941e-02
     3    1.383249415544e-03
     4    2.791650801829e-04
     5    8.461941494136e-09
     6    1.979655979902e-02
     7    8.157969757718e-03
     8    2.676665209809e-03
     9   -3.559992767818e-03
    10   -1.403725656410e-09
    11   -1.836441159129e-02
    12   -8.118338863837e-03
    13    1.060822959794e-03
    14    4.321440378797e-03
    15    7.827312033599e-10
    16    6.992623538886e-01
    17    3.191121804970e-02
    18    1.384143067073e-03
    19    2.793314594793e-04
    20   -4.436271254021e-09
    21   -1.981441803421e-02
    22   -8.164158458549e-03
    23    2.679271379791e-03
    24   -3.562882563820e-03
    25    7.396823949278e-10
    26    1.834830112488e-02
    27    8.112246158558e-03
    28    1.059548126591e-03
    29    4.317768172403e-03
    30   -1.785503913799e-09
    31   -3.504094498541e-04
    32    3.528128046260e-04
    33    3.505923926038e-04
    34   -3.526345011958e-04
    35   -3.384670256261e-02
    36   -6.592852527833e-03
    37   -3.793598871363e-03
    38   -8.857074153339e-04
    39    1.703658412008e-10
    40   -3.606708004122e-05
    41    5.523530000015e-04
    42    3.083314508250e-04
    43   -5.956304891867e-05
    44   -5.287257236387e-11
    45    3.780138295965e-04
    46   -3.086787131255e-05
    47   -1.490696890631e-04
    48    3.381813936324e-02
    49    6.587218739620e-03
    50   -3.790345842660e-03
    51   -8.849513559444e-04
    52   -8.153639541171e-10
    53    3.604350016824e-05
    54   -5.518873611127e-04
    55    3.080654521104e-04
    56   -5.951277674798e-05
    57    2.413714022446e-11
    58   -3.776870829279e-04
    59    3.084281981769e-05
    60    1.489546280706e-04
Sym=X
Ene= -10.017873
Spin=Alpha
Occup=1
     1    6.992058034297e-01
     2    3.168657631810e-02
     3   -1.036183037919e-03
     4   -2.067750748041e-04
     5   -8.415576338973e-09
     6   -2.108542112100e-02
     7   -7.295205855982e-03
     8   -3.076724088718e-03
     9    3.405483249359e-03
    10    1.261069984582e-09
    11   -1.944495086361e-02
    12   -7.206576565567e-03
    13    1.505326323319e-03
    14    4.331343381202e-03
    15    5.601120222731e-10
    16    6.986133838567e-01
    17    3.165952742554e-02
    18    1.035026226274e-03
    19    2.065297839414e-04
    20   -4.290639027582e-09
    21   -2.106860950973e-02
    22   -7.288288609984e-03
    23    3.074457813105e-03
    24   -3.402467452802e-03
    25    4.259458430680e-10
    26   -1.946090905083e-02
    27   -7.213474544494e-03
    28   -1.506226598325e-03
    29   -4.335005572699e-03
    30    1.618980749391e-09
    31    2.163165497521e-04
    32    2.148441779796e-04
    33    2.160190636531e-04
    34    2.151471304809e-04
    35   -3.446906613651e-02
    36   -6.684199743449e-03
    37   -3.839850613669e-03
    38   -8.958173768072e-04
    39    1.513906914695e-10
    40   -2.147493621338e-05
    41    5.584503501021e-04
    42    3.179484187861e-04
    43   -6.272623461177e-05
    44   -5.227291423382e-11
    45    3.919741177545e-04
    46   -2.969343339405e-05
    47   -1.362988683352e-04
    48   -3.449842371398e-02
    49   -6.689820756777e-03
    50    3.843067976846e-03
    51    8.965713975374e-04
    52    8.089540663137e-10
    53   -2.150005025784e-05
    54    5.589264240191e-04
    55   -3.182133451130e-04
    56    6.277969044432e-05
    57   -2.365936292044e-11
    58    3.923001691533e-04
    59   -2.971971933929e-05
    60   -1.364256935586e-04
Sym=X
Ene= -10.007543
Spin=Alpha
Occup=1
     1    3.465052842932e-02
     2   -3.314043559701e-03
     3   -4.047603611052e-03
     4   -6.223528026786e-04
     5   -8.842560794117e-10
     6   -2.020565958308e-02
     7   -1.032949186488e-03
     8   -4.935194084627e-05
     9    2.801711030731e-04
    10   -6.893890810400e-12
    11   -9.548866509216e-03
    12   -3.768168579636e-04
    13    5.614655128366e-05
    14    2.669809689048e-04
    15    6.274636959077e-11
    16    3.465074143813e-02
    17   -3.314141449534e-03
    18    4.047716537584e-03
    19    6.223602847805e-04
    20   -9.776198102387e-10
    21   -2.020814458102e-02
    22   -1.033059906719e-03
    23    4.934733077387e-05
    24   -2.801769656420e-04
    25    3.489401668773e-11
    26   -9.548721379926e-03
    27   -3.767891753899e-04
    28   -5.616424429570e-05
    29   -2.669831507475e-04
    30    1.986893493766e-10
    31    1.374465250621e-04
    32   -6.456528652894e-05
    33    1.374680565490e-04
    34   -6.456375285562e-05
    35    6.993367211423e-01
    36    3.058695305990e-02
    37   -1.360318226205e-03
    38    1.045621931902e-03
    39    4.680273064257e-09
    40   -5.558092908932e-03
    41   -7.786903829886e-03
    42   -3.222212122406e-03
    43    3.355417278508e-03
    44   -8.585892413364e-10
    45   -6.362538341183e-03
    46    2.031070867897e-04
    47    1.729409232838e-04
    48    6.993175684817e-01
    49    3.058611439536e-02
    50    1.360271565878e-03
    51   -1.045608344716e-03
    52    4.578004110950e-09
    53   -5.557896871494e-03
    54   -7.786689429414e-03
    55    3.222125891496e-03
    56   -3.355322758424e-03
    57   -8.893429584679e-10
    58   -6.362357098968e-03
    59    2.031003309325e-04
    60    1.729366064933e-04
Sym=X
Ene= -10.007542
Spin=Alpha
Occup=1
     1    3.422932126641e-02
     2   -3.376035819237e-03
     3   -4.083415949528e-03
     4   -6.648477481189e-04
     5   -8.919244972742e-10
     6   -1.409865583910e-02
     7   -8.745796640145e-04
     8    2.380693283116e-05
     9    2.092990713849e-04
    10   -1.163123810685e-12
    11    9.329088422716e-03
    12    6.614883991485e-04
    13    1.079569891206e-04
    14   -1.621525283152e-04
    15   -3.197065202815e-11
    16   -3.422763371418e-02
    17    3.375953862895e-03
    18   -4.083307659054e-03
    19   -6.648110849620e-04
    20    9.894468950109e-10
    21    1.410087373830e-02
    22    8.746782843179e-04
    23    2.381831894144e-05
    24    2.092923696593e-04
    25   -1.014334258290e-10
    26   -9.330343181060e-03
    27   -6.615751545513e-04
    28    1.079731189936e-04
    29   -1.621620187233e-04
    30    1.844241240567e-10
    31    1.071951158830e-04
    32    3.467381432558e-05
    33   -1.072172424370e-04
    34   -3.466683493623e-05
    35   -6.994893489545e-01
    36   -3.061199253150e-02
    37    1.347664094839e-03
    38   -1.047553185171e-03
    39   -4.682608612316e-09
    40    5.567824750569e-03
    41    7.789550781984e-03
    42    3.225289640992e-03
    43   -3.355721501729e-03
    44    8.585552204157e-10
    45    6.365829880858e-03
    46   -2.027542267645e-04
    47   -1.707493876464e-04
    48    6.995085332901e-01
    49    3.061283043836e-02
    50    1.347692127768e-03
    51   -1.047596569431e-03
    52    4.580373380593e-09
    53   -5.567933688478e-03
    54   -7.789763180336e-03
    55    3.225380156492e-03
    56   -3.355810972704e-03
    57   -8.894787195316e-10
    58   -6.365997454952e-03
    59    2.027585787480e-04
    60    1.707540365501e-04
Sym=X
Ene= -10.006641
Spin=Alpha
Occup=1
     1   -2.643605388927e-02
     2    7.772125093535e-03
     3   -3.285962716105e-03
     4    1.822228509980e-03
     5    6.219504928879e-10
     6   -6.661280307667e-01
     7   -3.192328881318e-02
     8    1.811552363129e-03
     9    1.442777714464e-03
    10   -2.645768912648e-09
    11    2.119845889633e-01
    12    1.599229283958e-02
    13    4.515694785317e-03
    14    5.109081474975e-04
    15    5.287626920920e-10
    16    2.645436232919e-02
    17   -7.776352298780e-03
    18   -3.288844953152e-03
    19    1.828623442739e-03
    20   -8.939431811754e-10
    21    6.670057434477e-01
    22    3.196575334197e-02
    23    1.814231452747e-03
    24    1.444377393129e-03
    25    2.504066091991e-09
    26   -2.123381131829e-01
    27   -1.601646162875e-02
    28    4.521531717419e-03
    29    5.114889935321e-04
    30    6.427118054809e-12
    31    6.036481128675e-03
    32   -2.092012083716e-03
    33   -6.044517421231e-03
    34    2.095320228198e-03
    35    1.509205273658e-02
    36    8.117014305963e-04
    37   -4.642405204892e-05
    38    5.133240123075e-05
    39    1.757916358400e-10
    40   -7.579358511860e-04
    41   -2.874395908933e-04
    42   -1.398415508773e-04
    43    6.435670724703e-05
    44   -2.251384453110e-11
    45   -1.941428221770e-04
    46   -2.519073610439e-06
    47    1.011848854092e-04
    48   -1.507034822887e-02
    49   -8.107588940480e-04
    50   -4.630573115772e-05
    51    5.138330928975e-05
    52   -1.377348076816e-10
    53    7.576802881910e-04
    54    2.871831873400e-04
    55   -1.397016914231e-04
    56    6.421118842598e-05
    57    1.270271561040e-11
    58    1.939129224780e-04
    59    2.523858953028e-06
    60   -1.013436672435e-04
Sym=X
Ene= -10.006608
Spin=Alpha
Occup=1
     1    1.440592756535e-02
     2   -3.330041911281e-03
     3    2.208087777801e-03
     4   -4.651342669507e-03
     5   -7.499254434445e-10
     6    6.569050431674e-01
     7    3.156652437418e-02
     8   -1.865644844487e-03
     9   -1.164527547646e-03
    10    2.537005925878e-09
    11   -2.426976750844e-01
    12   -1.711164677661e-02
    13   -4.341963891441e-03
    14   -4.542976609821e-04
    15   -4.104742276331e-10
    16    1.437110656085e-02
    17   -3.319763363216e-03
    18   -2.203656559718e-03
    19    4.648608902855e-03
    20   -6.904230044790e-10
    21    6.559924742847e-01
    22    3.152318492184e-02
    23    1.863421502027e-03
    24    1.162607179375e-03
    25    2.382865410768e-09
    26   -2.424470588164e-01
    27   -1.709152551305e-02
    28    4.335836512215e-03
    29    4.535467678195e-04
    30    3.053795557146e-10
    31   -6.012126771489e-03
    32    2.276405121783e-03
    33   -6.003868502061e-03
    34    2.273897333039e-03
    35    1.499829489426e-02
    36    6.510086458566e-04
    37   -9.009692196455e-05
    38   -3.827043311284e-05
    39    1.742037800217e-10
    40   -2.199679847830e-04
    41   -1.835926506658e-04
    42   -1.027839312349e-04
    43    1.011367987572e-04
    44   -2.034091824838e-11
    45   -1.630836365353e-04
    46    2.379436007901e-06
    47   -1.112840498481e-04
    48    1.501550930543e-02
    49    6.519631901244e-04
    50    9.015358770727e-05
    51    3.820430585709e-05
    52    1.233708860001e-10
    53   -2.209088847988e-04
    54   -1.839393382410e-04
    55    1.029538631795e-04
    56   -1.012128835799e-04
    57   -2.015774533120e-11
    58   -1.633153387766e-04
    59    2.376310296081e-06
    60   -1.111605091245e-04
Sym=X
Ene= -10.005587
Spin=Alpha
Occup=1
     1    1.232841608410e-02
     2   -4.056821022677e-03
     3    5.165692113272e-04
     4    4.957851942306e-03
     5    5.746348906181e-10
     6   -2.134978962289e-01
     7   -3.067097940362e-03
     8   -4.051882296635e-03
     9   -5.761488693895e-04
    10   -9.079653130684e-10
    11   -6.666732543112e-01
    12   -2.783438377657e-02
    13    4.760832235178e-04
    14    1.124929678586e-03
    15    2.774840333371e-10
    16   -1.228390779782e-02
    17    4.045252823989e-03
    18    5.129059289207e-04
    19    4.953685084279e-03
    20   -1.791652115495e-10
    21    2.139142043754e-01
    22    3.075902521177e-03
    23   -4.057913422335e-03
    24   -5.771507952338e-04
    25    1.282545916871e-09
    26    6.676907427264e-01
    27    2.787574041390e-02
    28    4.776604321601e-04
    29    1.126293888012e-03
    30   -2.289657699222e-09
    31    1.741339585120e-03
    32    5.959343320896e-03
    33   -1.745063279726e-03
    34   -5.968639021418e-03
    35   -4.029420073918e-03
    36   -2.633984845224e-04
    37   -1.002765655134e-05
    38    7.354556663883e-06
    39    9.302348746133e-12
    40    1.246546227293e-03
    41    1.739879857350e-04
    42    1.095896472280e-04
    43    5.902321548332e-05
    44   -3.639008664968e-13
    45    6.753044687700e-05
    46    2.230537499539e-05
    47   -2.346160647680e-04
    48    4.054018296110e-03
    49    2.645085724144e-04
    50   -9.752558370663e-06
    51    7.285518785656e-06
    52    3.882373640983e-11
    53   -1.249152272415e-03
    54   -1.745796667056e-04
    55    1.099174961735e-04
    56    5.899382861078e-05
    57    1.427816047899e-11
    58   -6.790504795483e-05
    59   -2.233728583203e-05
    60    2.349789158887e-04
Sym=X
Ene= -10.005478
Spin=Alpha
Occup=1
     1    2.759121393191e-02
     2   -7.262277129512e-03
     3    2.259583315001e-03
     4    2.813065136263e-03
     5    5.797816269595e-11
     6    2.427705261974e-01
     7    4.525764447403e-03
     8    3.911516656045e-03
     9    6.775242830722e-04
    10    9.870305211836e-10
    11    6.572807909652e-01
    12    2.697111859535e-02
    13   -8.610786668339e-04
    14   -8.549000474229e-04
    15   -2.194799311977e-10
    16    2.761118980989e-02
    17   -7.268956289786e-03
    18   -2.260518640484e-03
    19   -2.820772747696e-03
    20   -5.415143952798e-10
    21    2.424611900895e-01
    22    4.522194884358e-03
    23   -3.905083521780e-03
    24   -6.765616744587e-04
    25    1.379518258728e-09
    26    6.562254695196e-01
    27    2.692677172790e-02
    28    8.604981233776e-04
    29    8.531532480288e-04
    30   -2.215416171544e-09
    31   -2.166366934811e-03
    32   -6.009340309989e-03
    33   -2.163867683657e-03
    34   -5.999894824706e-03
    35    1.470604358336e-02
    36    6.674940989811e-04
    37   -1.700622123255e-04
    38    4.501823060667e-05
    39    1.299861106986e-10
    40   -1.668264059238e-03
    41   -3.667756640111e-04
    42   -2.035694694940e-04
    43    1.305117334116e-05
    44   -1.646363438116e-11
    45   -2.290749972925e-04
    46   -2.041896768490e-05
    47    2.354248015777e-04
    48    1.469904061732e-02
    49    6.670419039219e-04
    50    1.700780372512e-04
    51   -4.502752279656e-05
    52    1.344776887218e-10
    53   -1.666248797881e-03
    54   -3.664889455842e-04
    55    2.033914913344e-04
    56   -1.314114490372e-05
    57    2.964409156165e-12
    58   -2.289602738215e-04
    59   -2.038416258715e-05
    60    2.350518376027e-04
Sym=X
Ene= -9.991924
Spin=Alpha
Occup=1
     1    3.753636317015e-04
     2    1.964901606359e-04
     3    4.453294339486e-05
     4    4.383085330787e-05
     5    5.408142775473e-12
     6    6.440502278273e-04
     7   -1.003234898397e-04
     8   -2.030475069706e-05
     9    3.429902294068e-05
    10   -3.875110744378e-13
    11    1.450077494777e-03
    12   -3.355821254723e-05
    13    1.506196581165e-04
    14   -3.687060537246e-06
    15    1.691698635279e-12
    16    3.751603612414e-04
    17    1.963787801079e-04
    18   -4.450659632565e-05
    19   -4.380600051679e-05
    20    4.053859397974e-12
    21    6.439152061962e-04
    22   -1.003225664787e-04
    23    2.024664769506e-05
    24   -3.429300673860e-05
    25    4.415211736742e-12
    26    1.450822222565e-03
    27   -3.356760980135e-05
    28   -1.507129103943e-04
    29    3.685967420686e-06
    30    8.487476173879e-12
    31   -1.867168202820e-05
    32    1.633200221209e-04
    33   -1.866524680136e-05
    34    1.634117113131e-04
    35    6.421690614136e-03
    36   -7.253355342850e-03
    37    3.201126346014e-03
    38   -3.316236403049e-03
    39   -3.583632399346e-10
    40    7.002903608452e-01
    41    3.108510295008e-02
    42    1.007751918388e-03
    43   -1.020668586483e-03
    44   -2.313504408515e-12
    45    8.587172767150e-05
    46   -6.339983647109e-03
    47   -6.361611774528e-03
    48    6.425239621916e-03
    49   -7.257427753152e-03
    50   -3.202923791391e-03
    51    3.318100816852e-03
    52    2.463038345481e-10
    53    7.006825267995e-01
    54    3.110251555712e-02
    55   -1.008333756340e-03
    56    1.021243430790e-03
    57   -1.682472728604e-09
    58    8.591982769019e-05
    59   -6.343526560571e-03
    60   -6.365175512918e-03
Sym=X
Ene= -9.991924
Spin=Alpha
Occup=1
     1   -3.669409247214e-04
     2   -1.974428150240e-04
     3   -4.618177998411e-05
     4   -4.555954288403e-05
     5   -5.487687485333e-12
     6   -2.357916269729e-04
     7    1.539324752017e-06
     8    1.039420515014e-04
     9   -1.081204959215e-05
    10    8.950903767217e-13
    11    1.381368925991e-03
    12   -1.432007155543e-05
    13    1.663404578215e-04
    14    1.615639708533e-06
    15    1.696129725963e-12
    16    3.671533805920e-04
    17    1.975519770960e-04
    18   -4.620623112340e-05
    19   -4.558472218362e-05
    20    4.993034351459e-12
    21    2.361528308303e-04
    22   -1.595773054231e-06
    23    1.039531937329e-04
    24   -1.083138586785e-05
    25    6.560257264037e-12
    26   -1.380529468371e-03
    27    1.430269504883e-05
    28    1.662562066253e-04
    29    1.617876983234e-06
    30   -1.134590263461e-11
    31    1.138753189669e-05
    32    1.635165318276e-04
    33   -1.139795679792e-05
    34   -1.634252348075e-04
    35    6.419546660177e-03
    36   -7.257608687706e-03
    37    3.203543858823e-03
    38   -3.318666166211e-03
    39   -3.587587677772e-10
    40    7.006829165542e-01
    41    3.110294334134e-02
    42    1.008639374784e-03
    43   -1.021383204648e-03
    44   -2.459636466246e-12
    45    8.636662385680e-05
    46   -6.343512715187e-03
    47   -6.365064194907e-03
    48   -6.415906420632e-03
    49    7.253557162789e-03
    50    3.201755667886e-03
    51   -3.316816043569e-03
    52   -2.461134367089e-10
    53   -7.002907507470e-01
    54   -3.108554010974e-02
    55    1.008092331829e-03
    56   -1.020814810867e-03
    57    1.681541203198e-09
    58   -8.631829874744e-05
    59    6.339954805861e-03
    60    6.361502931510e-03
Sym=X
Ene= -0.817963
Spin=Alpha
Occup=1
     1   -1.081676169830e-01
     2    2.710748111539e-01
     3   -4.919544007127e-02
     4   -1.067545252495e-02
     5   -5.684715197306e-08
     6   -9.908217834446e-02
     7    2.469465600715e-01
     8   -1.382205149453e-02
     9   -5.898533377415e-02
    10   -8.064338626609e-08
    11   -9.961862960531e-02
    12    2.481201467196e-01
    13    3.487116365962e-02
    14   -4.893620551885e-02
    15   -1.257010551788e-07
    16   -1.081674595268e-01
    17    2.710743438580e-01
    18    4.919523539546e-02
    19    1.067506114509e-02
    20   -2.152346366204e-07
    21   -9.908204637079e-02
    22    2.469461147680e-01
    23    1.382189243757e-02
    24    5.898502836607e-02
    25   -1.626140901887e-07
    26   -9.961861659331e-02
    27    2.481200262205e-01
    28   -3.487094676066e-02
    29    4.893633919963e-02
    30    2.991235903719e-08
    31    4.325274603007e-02
    32    4.439807363373e-02
    33    4.325297019208e-02
    34    4.439809302692e-02
    35   -4.362175867002e-02
    36    1.119687493887e-01
    37    2.458988150626e-02
    38    1.392860909671e-02
    39   -5.329453346708e-08
    40   -2.297821502471e-02
    41    5.742180367890e-02
    42    1.891392470519e-02
    43   -1.170523986353e-02
    44   -4.969696444415e-08
    45    2.188690543434e-02
    46    9.334389399675e-03
    47    1.362764030058e-02
    48   -4.362182250882e-02
    49    1.119689225844e-01
    50   -2.458960944653e-02
    51   -1.392882471621e-02
    52    6.605229545203e-09
    53   -2.297832529607e-02
    54    5.742202744750e-02
    55   -1.891403917162e-02
    56    1.170513805719e-02
    57    1.794685149688e-08
    58    2.188692273780e-02
    59    9.334428651105e-03
    60    1.362774878909e-02
Sym=X
Ene= -0.755040
Spin=Alpha
Occup=1
     1   -1.018995872081e-01
     2    2.673067654698e-01
     3    2.612671430804e-02
     4   -3.979535557920e-03
     5   -5.354926425316e-08
     6   -3.614445263674e-02
     7    9.404641944402e-02
     8    6.234268790882e-02
     9   -2.747108262521e-02
    10   -4.058873716198e-08
    11    4.878151016508e-02
    12   -1.268813719604e-01
    13    4.578700722465e-02
    14    4.858288324537e-02
    15    9.698042297278e-08
    16    1.018997310070e-01
    17   -2.673071064900e-01
    18    2.612668606730e-02
    19   -3.978739486349e-03
    20    2.231439931603e-07
    21    3.614479361697e-02
    22   -9.404724230017e-02
    23    6.234293916061e-02
    24   -2.747107285392e-02
    25    6.995867327230e-08
    26   -4.878149292465e-02
    27    1.268812395673e-01
    28    4.578731385889e-02
    29    4.858297907324e-02
    30    8.754845598027e-08
    31    2.420904667983e-02
    32   -3.527221935463e-02
    33   -2.420944884676e-02
    34    3.527229346697e-02
    35    1.112726465181e-01
    36   -2.899517405085e-01
    37   -1.819578738032e-03
    38   -4.174091072528e-02
    39    8.447741273009e-08
    40    8.436396363584e-02
    41   -2.166810440267e-01
    42   -5.067248906751e-02
    43    4.049458365159e-02
    44    1.280751482993e-07
    45   -6.452208876509e-02
    46   -4.451471176666e-02
    47   -5.155343690868e-02
    48   -1.112728197711e-01
    49    2.899523125148e-01
    50   -1.818885934328e-03
    51   -4.174156335778e-02
    52   -5.156912466907e-09
    53   -8.436428725820e-02
    54    2.166817050146e-01
    55   -5.067268782207e-02
    56    4.049423760149e-02
    57    4.271981516038e-08
    58    6.452214815853e-02
    59    4.451486668459e-02
    60    5.155374061103e-02
Sym=X
Ene= -0.720678
Spin=Alpha
Occup=1
     1   -3.600959590083e-03
     2    1.303362594665e-02
     3    9.090215216555e-02
     4    6.813873058455e-03
     5    1.372958779254e-09
     6    4.328140563963e-02
     7   -1.119317962910e-01
     8    3.216151571821e-02
     9    1.834994612843e-02
    10    1.751904972734e-08
    11    3.507525958835e-02
    12   -9.049324169878e-02
    13   -4.874702324618e-02
    14    1.660907131697e-03
    15    2.538554246243e-09
    16   -3.601584854413e-03
    17    1.303534398973e-02
    18   -9.090187110342e-02
    19   -6.815385301702e-03
    20   -6.565347691712e-08
    21    4.327988998484e-02
    22   -1.119277458288e-01
    23   -3.216135130376e-02
    24   -1.834961452356e-02
    25    8.174247041328e-08
    26    3.507428662638e-02
    27   -9.049067627998e-02
    28    4.874628681496e-02
    29   -1.661416269084e-03
    30    3.435785188748e-08
    31   -2.116892864744e-02
    32   -9.568890584664e-03
    33   -2.116798539019e-02
    34   -9.568099644209e-03
    35   -1.203213939954e-01
    36    3.162504247145e-01
    37   -5.891498770878e-02
    38    5.481705634079e-02
    39   -3.923015469466e-08
    40   -1.208021950287e-01
    41    3.159234790896e-01
    42    5.370598346629e-02
    43   -5.407025617028e-02
    44   -1.417185081017e-07
    45    7.539527820092e-02
    46    7.461848143357e-02
    47    7.577720136543e-02
    48   -1.203212093825e-01
    49    3.162501640407e-01
    50    5.891560234413e-02
    51   -5.481784103141e-02
    52   -2.414035489463e-08
    53   -1.208022745879e-01
    54    3.159234584165e-01
    55   -5.370595689552e-02
    56    5.406959645825e-02
    57    4.532673231179e-08
    58    7.539503249567e-02
    59    7.461851699129e-02
    60    7.577738929707e-02
Sym=X
Ene= -0.704128
Spin=Alpha
Occup=1
     1    1.910067165644e-02
     2   -5.125324160518e-02
     3    3.037402103317e-02
     4   -1.301254428473e-01
     5    1.382819171259e-07
     6    1.356969738351e-01
     7   -3.627580134219e-01
     8    5.059921066173e-02
     9    5.822137751215e-03
    10    1.454416262498e-07
    11    1.168330159952e-01
    12   -3.119234096689e-01
    13   -6.807875138684e-02
    14   -3.660233881926e-02
    15    8.708428857319e-08
    16   -1.910077536496e-02
    17    5.125354517988e-02
    18    3.037450265211e-02
    19   -1.301256388041e-01
    20   -2.353088931492e-08
    21   -1.356975243890e-01
    22    3.627593799922e-01
    23    5.059915397849e-02
    24    5.821984575729e-03
    25   -1.706107737471e-07
    26   -1.168332580103e-01
    27    3.119240136952e-01
    28   -6.807915447318e-02
    29   -3.660234466285e-02
    30   -1.270686052271e-08
    31   -9.776792984005e-02