[Molden Format]
[Atoms] (Angs)
  C      1    6      1.36681328      0.27876940     -0.00000000
  C      2    6      0.44164871      1.32305947     -0.00000000
  C      3    6     -0.92491848      1.04428421     -0.00000000
  C      4    6     -1.36681328     -0.27876940      0.00000000
  C      5    6     -0.44164871     -1.32305947      0.00000000
  C      6    6      0.92491848     -1.04428421      0.00000000
  H      7    1      0.79022161      2.36600642     -0.00000000
  H      8    1     -1.65420282      1.86735212     -0.00000000
  H      9    1     -0.79022161     -2.36600642      0.00000000
  H     10    1      1.65420282     -1.86735212      0.00000000
  C     11    6     -2.87586071     -0.58678089      0.00000000
  C     12    6     -3.80078811      0.36325183     -0.00000000
  H     13    1     -3.12383414     -1.65668319      0.00000000
  H     14    1     -4.87694183      0.14397476     -0.00000000
  H     15    1     -3.55281468      1.43315415     -0.00000000
  C     16    6      2.87586071      0.58678089     -0.00000000
  C     17    6      3.80078811     -0.36325183      0.00000000
  H     18    1      3.12383414      1.65668319     -0.00000000
  H     19    1      4.87694183     -0.14397476      0.00000000
  H     20    1      3.55281468     -1.43315415      0.00000000
[GTO]
1    0
S    3    1.000000
   7.16168370E+01    1.54328970E-01 
   1.30450960E+01    5.35328140E-01 
   3.53051220E+00    4.44634540E-01 
SP   3    1.000000
   2.94124940E+00   -9.99672300E-02   1.55916270E-01 
   6.83483100E-01    3.99512830E-01   6.07683720E-01 
   2.22289900E-01    7.00115470E-01   3.91957390E-01 

2    0
S    3    1.000000
   7.16168370E+01    1.54328970E-01 
   1.30450960E+01    5.35328140E-01 
   3.53051220E+00    4.44634540E-01 
SP   3    1.000000
   2.94124940E+00   -9.99672300E-02   1.55916270E-01 
   6.83483100E-01    3.99512830E-01   6.07683720E-01 
   2.22289900E-01    7.00115470E-01   3.91957390E-01 

3    0
S    3    1.000000
   7.16168370E+01    1.54328970E-01 
   1.30450960E+01    5.35328140E-01 
   3.53051220E+00    4.44634540E-01 
SP   3    1.000000
   2.94124940E+00   -9.99672300E-02   1.55916270E-01 
   6.83483100E-01    3.99512830E-01   6.07683720E-01 
   2.22289900E-01    7.00115470E-01   3.91957390E-01 

4    0
S    3    1.000000
   7.16168370E+01    1.54328970E-01 
   1.30450960E+01    5.35328140E-01 
   3.53051220E+00    4.44634540E-01 
SP   3    1.000000
   2.94124940E+00   -9.99672300E-02   1.55916270E-01 
   6.83483100E-01    3.99512830E-01   6.07683720E-01 
   2.22289900E-01    7.00115470E-01   3.91957390E-01 

5    0
S    3    1.000000
   7.16168370E+01    1.54328970E-01 
   1.30450960E+01    5.35328140E-01 
   3.53051220E+00    4.44634540E-01 
SP   3    1.000000
   2.94124940E+00   -9.99672300E-02   1.55916270E-01 
   6.83483100E-01    3.99512830E-01   6.07683720E-01 
   2.22289900E-01    7.00115470E-01   3.91957390E-01 

6    0
S    3    1.000000
   7.16168370E+01    1.54328970E-01 
   1.30450960E+01    5.35328140E-01 
   3.53051220E+00    4.44634540E-01 
SP   3    1.000000
   2.94124940E+00   -9.99672300E-02   1.55916270E-01 
   6.83483100E-01    3.99512830E-01   6.07683720E-01 
   2.22289900E-01    7.00115470E-01   3.91957390E-01 

7    0
S    3    1.000000
   3.42525091E+00    1.54328970E-01 
   6.23913730E-01    5.35328140E-01 
   1.68855400E-01    4.44634540E-01 

8    0
S    3    1.000000
   3.42525091E+00    1.54328970E-01 
   6.23913730E-01    5.35328140E-01 
   1.68855400E-01    4.44634540E-01 

9    0
S    3    1.000000
   3.42525091E+00    1.54328970E-01 
   6.23913730E-01    5.35328140E-01 
   1.68855400E-01    4.44634540E-01 

10    0
S    3    1.000000
   3.42525091E+00    1.54328970E-01 
   6.23913730E-01    5.35328140E-01 
   1.68855400E-01    4.44634540E-01 

11    0
S    3    1.000000
   7.16168370E+01    1.54328970E-01 
   1.30450960E+01    5.35328140E-01 
   3.53051220E+00    4.44634540E-01 
SP   3    1.000000
   2.94124940E+00   -9.99672300E-02   1.55916270E-01 
   6.83483100E-01    3.99512830E-01   6.07683720E-01 
   2.22289900E-01    7.00115470E-01   3.91957390E-01 

12    0
S    3    1.000000
   7.16168370E+01    1.54328970E-01 
   1.30450960E+01    5.35328140E-01 
   3.53051220E+00    4.44634540E-01 
SP   3    1.000000
   2.94124940E+00   -9.99672300E-02   1.55916270E-01 
   6.83483100E-01    3.99512830E-01   6.07683720E-01 
   2.22289900E-01    7.00115470E-01   3.91957390E-01 

13    0
S    3    1.000000
   3.42525091E+00    1.54328970E-01 
   6.23913730E-01    5.35328140E-01 
   1.68855400E-01    4.44634540E-01 

14    0
S    3    1.000000
   3.42525091E+00    1.54328970E-01 
   6.23913730E-01    5.35328140E-01 
   1.68855400E-01    4.44634540E-01 

15    0
S    3    1.000000
   3.42525091E+00    1.54328970E-01 
   6.23913730E-01    5.35328140E-01 
   1.68855400E-01    4.44634540E-01 

16    0
S    3    1.000000
   7.16168370E+01    1.54328970E-01 
   1.30450960E+01    5.35328140E-01 
   3.53051220E+00    4.44634540E-01 
SP   3    1.000000
   2.94124940E+00   -9.99672300E-02   1.55916270E-01 
   6.83483100E-01    3.99512830E-01   6.07683720E-01 
   2.22289900E-01    7.00115470E-01   3.91957390E-01 

17    0
S    3    1.000000
   7.16168370E+01    1.54328970E-01 
   1.30450960E+01    5.35328140E-01 
   3.53051220E+00    4.44634540E-01 
SP   3    1.000000
   2.94124940E+00   -9.99672300E-02   1.55916270E-01 
   6.83483100E-01    3.99512830E-01   6.07683720E-01 
   2.22289900E-01    7.00115470E-01   3.91957390E-01 

18    0
S    3    1.000000
   3.42525091E+00    1.54328970E-01 
   6.23913730E-01    5.35328140E-01 
   1.68855400E-01    4.44634540E-01 

19    0
S    3    1.000000
   3.42525091E+00    1.54328970E-01 
   6.23913730E-01    5.35328140E-01 
   1.68855400E-01    4.44634540E-01 

20    0
S    3    1.000000
   3.42525091E+00    1.54328970E-01 
   6.23913730E-01    5.35328140E-01 
   1.68855400E-01    4.44634540E-01 

[MO]
Sym=X
Ene= -10.254021
Spin=Alpha
Occup=1
     1   -6.950405792772e-01
     2   -3.133581062042e-02
     3    1.521854233785e-03
     4    3.300383030698e-04
     5   -5.952929551575e-08
     6    6.245594424163e-03
     7    7.417870282944e-03
     8    2.738786941872e-03
     9   -3.524842551191e-03
    10    9.985045953971e-09
    11   -6.814382611273e-03
    12   -7.549303450244e-03
    13    1.166282616011e-03
    14    4.384840560564e-03
    15   -2.739104585415e-09
    16    7.054029869521e-01
    17    3.179968170418e-02
    18    1.539425738710e-03
    19    3.338965478483e-04
    20    1.340342797475e-08
    21   -6.348443895820e-03
    22   -7.518501338838e-03
    23    2.783336394327e-03
    24   -3.575674145998e-03
    25   -3.224127458153e-09
    26    6.704100218133e-03
    27    7.448081801475e-03
    28    1.145206798719e-03
    29    4.320584228073e-03
    30    9.041599127537e-09
    31   -2.225560548777e-04
    32    2.392118335292e-04
    33    2.237912779263e-04
    34   -2.377607156634e-04
    35   -9.788709180383e-03
    36   -5.546108586313e-03
    37   -3.846164511321e-03
    38   -8.557198521094e-04
    39   -3.158208655338e-10
    40   -1.091562113068e-04
    41    2.880442969505e-04
    42    1.954004664906e-04
    43    5.412133615910e-05
    44   -9.226812380633e-11
    45    1.566369100637e-04
    46   -2.583714694139e-05
    47   -1.393799741063e-04
    48    9.642700036506e-03
    49    5.463505042507e-03
    50   -3.788890108837e-03
    51   -8.429870098257e-04
    52    6.785503167198e-09
    53    1.076243180600e-04
    54   -2.838075989973e-04
    55    1.924326037962e-04
    56    5.333994827463e-05
    57   -7.096060889261e-10
    58   -1.542092650259e-04
    59    2.547351031608e-05
    60    1.375121160243e-04
Sym=X
Ene= -10.253952
Spin=Alpha
Occup=1
     1    7.054327283006e-01
     2    3.158320998807e-02
     3   -1.191574422653e-03
     4   -2.631372238583e-04
     5    6.015522609618e-08
     6   -7.007673236671e-03
     7   -6.854629502606e-03
     8   -3.030891213475e-03
     9    3.459627289115e-03
    10   -9.884482577363e-09
    11   -7.424426273307e-03
    12   -6.785521272308e-03
    13    1.416521342471e-03
    14    4.309531480349e-03
    15   -9.259145464213e-10
    16    6.950707990408e-01
    17    3.111602532601e-02
    18    1.169031863369e-03
    19    2.582265006601e-04
    20    1.232825059544e-08
    21   -6.914340965286e-03
    22   -6.744129180329e-03
    23    2.990032457120e-03
    24   -3.407112427193e-03
    25   -1.867308288522e-09
    26   -7.524764354736e-03
    27   -6.896494657720e-03
    28   -1.433639365219e-03
    29   -4.373936050061e-03
    30   -8.697433691227e-09
    31    8.548190664308e-05
    32    9.671701219418e-05
    33    8.217519183270e-05
    34    1.002515725625e-04
    35   -9.804216254192e-03
    36   -5.544653306086e-03
    37   -3.844378680203e-03
    38   -8.542451779877e-04
    39   -2.035818555668e-10
    40   -1.025821329112e-04
    41    2.842804764359e-04
    42    1.991761600728e-04
    43    5.249096323163e-05
    44   -9.267610261086e-11
    45    1.632422171630e-04
    46   -2.440145486993e-05
    47   -1.253132447425e-04
    48   -9.948121275315e-03
    49   -5.626164172670e-03
    50    3.900904528250e-03
    51    8.668152615011e-04
    52   -6.839861708089e-09
    53   -1.041837322484e-04
    54    2.885129929586e-04
    55   -2.020465825428e-04
    56   -5.328736757549e-05
    57    7.175578873087e-10
    58    1.655473496786e-04
    59   -2.478136362182e-05
    60   -1.273635863450e-04
Sym=X
Ene= -10.222107
Spin=Alpha
Occup=1
     1    8.633626533671e-03
     2   -7.623063589805e-03
     3    2.009934246512e-03
     4    3.735654819025e-03
     5    9.114838660916e-09
     6    9.510549249628e-02
     7    1.113614658564e-02
     8   -4.361415301242e-03
     9   -1.261002092450e-03
    10   -7.465607163167e-09
    11   -6.925357526265e-01
    12   -3.209142298439e-02
    13   -1.514113573838e-03
    14    1.053123579536e-03
    15    2.948513627866e-08
    16   -8.608898867276e-03
    17    7.605348139852e-03
    18    2.006516580077e-03
    19    3.719196287873e-03
    20   -6.054147275578e-09
    21   -9.547458559895e-02
    22   -1.117494384648e-02
    23   -4.376362095598e-03
    24   -1.264990200210e-03
    25    1.245674469767e-08
    26    6.949173929078e-01
    27    3.220130263914e-02
    28   -1.518769378410e-03
    29    1.055788573774e-03
    30   -5.743903407593e-08
    31   -1.024137953178e-03
    32    6.209189880277e-03
    33    1.027623984579e-03
    34   -6.230816776373e-03
    35    2.062006211372e-03
    36   -1.632859657335e-04
    37   -7.985592839606e-05
    38   -1.935876753006e-05
    39    1.638002602184e-10
    40    2.421052998583e-03
    41    1.960872882642e-04
    42    1.087826971100e-04
    43    8.274859384813e-05
    44   -1.696326896336e-10
    45    3.544886288634e-05
    46    1.486983579792e-05
    47   -2.604064855730e-04
    48   -2.078666158297e-03
    49    1.629156420208e-04
    50   -7.972387272977e-05
    51   -1.956697344290e-05
    52   -4.522258131238e-10
    53   -2.428698638900e-03
    54   -1.966400396950e-04
    55    1.090762862239e-04
    56    8.304448466139e-05
    57    4.105155366518e-10
    58   -3.554296358977e-05
    59   -1.491599921368e-05
    60    2.613122591047e-04
Sym=X
Ene= -10.222050
Spin=Alpha
Occup=1
     1    7.039379614950e-03
     2   -5.106769458599e-03
     3    9.782488653179e-04
     4    4.779398438050e-03
     5    7.668452618307e-09
     6   -1.096811977593e-01
     7   -1.138846503389e-02
     8    4.349006753130e-03
     9    1.160923560651e-03
    10    6.399800805568e-09
    11    6.928365301474e-01
    12    3.197837092573e-02
    13    1.369645444145e-03
    14   -7.589424382664e-04
    15   -2.860212495852e-08
    16    7.068790172768e-03
    17   -5.133008898829e-03
    18   -9.851901954413e-04
    19   -4.792173720036e-03
    20    3.223623534584e-09
    21   -1.093461383373e-01
    22   -1.134976471578e-02
    23   -4.333975862815e-03
    24   -1.156572942573e-03
    25    1.177463946854e-08
    26    6.904499437531e-01
    27    3.186773855063e-02
    28   -1.364382714089e-03
    29    7.553717022737e-04
    30   -5.660784508418e-08
    31    1.035782753979e-03
    32   -6.293731316810e-03
    33    1.032187160658e-03
    34   -6.272323462256e-03
    35   -5.089708874763e-03
    36   -1.178727190192e-04
    37   -3.690591127834e-05
    38    5.964143005679e-05
    39    1.592120935393e-10
    40   -2.202916887331e-03
    41   -1.569202077326e-04
    42   -8.347567634061e-05
    43   -8.717781859298e-05
    44    1.292422765341e-10
    45   -2.511245505961e-05
    46   -1.346260418302e-05
    47    2.636609802641e-04
    48   -5.080999363305e-03
    49   -1.183683557644e-04
    50    3.718507456469e-05
    51   -5.957973967323e-05
    52   -3.645724063703e-10
    53   -2.194631908344e-03
    54   -1.562641154560e-04
    55    8.311002201760e-05
    56    8.688555674894e-05
    57    4.083401644826e-10
    58   -2.500293318782e-05
    59   -1.341113094197e-05
    60    2.627631043698e-04
Sym=X
Ene= -10.219816
Spin=Alpha
Occup=1
     1   -6.074958290540e-03
     2    5.754707225133e-03
     3   -2.890787382722e-03
     4    3.782350679757e-03
     5   -4.370581188509e-10
     6   -6.937701573316e-01
     7   -3.021812400391e-02
     8   -1.869040620526e-04
     9    1.295359130233e-03
    10    1.013516573051e-08
    11   -9.628904372789e-02
    12    2.553118481804e-03
    13    4.260841508582e-03
    14    8.649476936468e-04
    15    1.824814597472e-09
    16    6.077167904699e-03
    17   -5.756583228222e-03
    18   -2.891766910506e-03
    19    3.783140198705e-03
    20    1.777405280790e-09
    21    6.939668992311e-01
    22    3.022667974569e-02
    23   -1.869634721065e-04
    24    1.295648969037e-03
    25   -1.001086828931e-08
    26    9.631308001248e-02
    27   -2.553885650790e-03
    28    4.262053306859e-03
    29    8.652080456671e-04
    30   -5.843172146424e-09
    31    6.124463917098e-03
    32    6.774177410918e-04
    33   -6.126229898170e-03
    34   -6.776187341102e-04
    35   -4.341304638534e-03
    36   -4.735900699783e-06
    37    4.891520435779e-05
    38    3.617200935141e-05
    39    2.586709370099e-10
    40   -1.077302293185e-04
    41   -1.021116855615e-05
    42   -6.291245163461e-06
    43    3.887304192858e-06
    44   -7.886258839261e-11
    45   -1.456040293517e-06
    46    3.905240376941e-06
    47   -1.051318834681e-05
    48    4.327221701297e-03
    49    4.155199224739e-06
    50    4.890050721353e-05
    51    3.620591263428e-05
    52   -7.361367951065e-11
    53    1.075208283536e-04
    54    1.033300781735e-05
    55   -6.329505419178e-06
    56    3.954824499973e-06
    57    3.202817211350e-11
    58    1.561451901030e-06
    59   -3.912000094117e-06
    60    1.051164465565e-05
Sym=X
Ene= -10.219731
Spin=Alpha
Occup=1
     1    8.630919923755e-03
     2   -6.866185314532e-03
     3    3.408315689067e-03
     4   -2.633437431106e-03
     5    2.505907875100e-09
     6    6.910389189730e-01
     7    2.980951669990e-02
     8    3.778291973550e-04
     9   -9.506262013737e-04
    10   -9.990197183181e-09
    11    1.100478960613e-01
    12   -1.564634281256e-03
    13   -4.225174185795e-03
    14   -9.226911432367e-04
    15   -2.792083510297e-09
    16    8.628209657791e-03
    17   -6.864260475878e-03
    18   -3.407842556555e-03
    19    2.632273926630e-03
    20    2.422927753683e-09
    21    6.908429840847e-01
    22    2.980105337084e-02
    23   -3.777217583581e-04
    24    9.502853260170e-04
    25   -9.708721115927e-09
    26    1.100129209989e-01
    27   -1.564250969691e-03
    28    4.223985450532e-03
    29    9.224392435356e-04
    30   -7.077905301091e-09
    31   -6.214349445119e-03
    32   -9.390675215672e-04
    33   -6.212615568709e-03
    34   -9.388150254326e-04
    35   -3.627159997099e-02
    36   -1.461085634257e-03
    37    2.529461392959e-05
    38   -8.611768218028e-05
    39    2.972404986974e-09
    40   -1.203221452153e-03
    41    2.595812962105e-04
    42    6.847422016693e-05
    43   -1.776246692279e-04
    44   -6.043114490626e-10
    45    2.527222726693e-04
    46   -1.789385397828e-05
    47    1.157661131830e-05
    48   -3.621553622336e-02
    49   -1.458571838804e-03
    50   -2.520612627958e-05
    51    8.598537407387e-05
    52    7.104505015479e-10
    53   -1.204769036656e-03
    54    2.588895439289e-04
    55   -6.820198266247e-05
    56    1.773475644431e-04
    57    8.198507644660e-11
    58    2.522162215484e-04
    59   -1.786705316422e-05
    60    1.159586356633e-05
Sym=X
Ene= -10.219222
Spin=Alpha
Occup=1
     1    1.144609709828e-02
     2   -5.049372790187e-03
     3   -3.736593431613e-03
     4   -7.390722741302e-04
     5    1.900526465811e-09
     6    3.488505432716e-02
     7    1.460211762450e-03
     8    1.536436079602e-04
     9    1.119632559037e-04
    10   -5.179591987553e-10
    11    1.057524041419e-02
    12    2.375598541285e-04
    13   -3.195340454512e-04
    14    3.057662545913e-05
    15   -1.061059349197e-09
    16    1.146456896020e-02
    17   -5.057549400552e-03
    18    3.743353440958e-03
    19    7.401891647517e-04
    20    8.388792322319e-09
    21    3.489673027570e-02
    22    1.460914084581e-03
    23   -1.537090221463e-04
    24   -1.120321319956e-04
    25   -1.083226555862e-09
    26    1.057230444453e-02
    27    2.370595334254e-04
    28    3.195251525675e-04
    29   -3.054762540127e-05
    30   -8.972669843136e-10
    31   -3.600465822232e-04
    32   -2.490564169432e-04
    33   -3.601995774029e-04
    34   -2.487973393130e-04
    35    6.998089321938e-01
    36    3.086409731185e-02
    37   -1.292290510454e-03
    38    1.310414283634e-03
    39   -6.157125219873e-08
    40   -2.003131615173e-02
    41   -8.481309666987e-03
    42   -3.292523281882e-03
    43    3.376737718652e-03
    44    1.345398553034e-08
    45   -6.290485410826e-03
    46    3.287313664959e-04
    47    3.177496722295e-04
    48    6.986080273722e-01
    49    3.081128025916e-02
    50    1.290193130711e-03
    51   -1.307885005586e-03
    52   -1.675045385499e-08
    53   -2.000070757096e-02
    54   -8.466893302595e-03
    55    3.286846346901e-03
    56   -3.370952564037e-03
    57    1.306758516128e-09
    58   -6.279857355673e-03
    59    3.282039454941e-04
    60    3.172362087810e-04
Sym=X
Ene= -10.219219
Spin=Alpha
Occup=1
     1   -1.084098983657e-02
     2    4.731652837765e-03
     3    3.944354585840e-03
     4    6.607932210884e-04
     5   -1.806381504162e-09
     6   -4.471221094875e-03
     7   -3.031133042843e-04
     8   -4.269501303650e-05
     9   -4.275868689044e-05
    10    1.169744850764e-10
    11    1.284666767441e-03
    12    2.455185778420e-04
    13   -2.076681894860e-05
    14    1.754061926188e-05
    15   -7.441561400763e-10
    16    1.082193025307e-02
    17   -4.723581146419e-03
    18    3.937679627811e-03
    19    6.596991900183e-04
    20    8.252550919991e-09
    21    4.467664901078e-03
    22    3.030134741364e-04
    23   -4.247271508885e-05
    24   -4.249833030562e-05
    25   -7.424242212935e-10
    26   -1.292261305496e-03
    27   -2.459730744290e-04
    28   -2.097549619700e-05
    29    1.767551903623e-05
    30    2.259686656641e-10
    31    6.728514427983e-05
    32   -1.454133138089e-04
    33   -6.717556150832e-05
    34    1.457480152726e-04
    35    6.995500343823e-01
    36    3.086213126456e-02
    37   -1.276236019321e-03
    38    1.312702035737e-03
    39   -6.154012548315e-08
    40   -1.986851368620e-02
    41   -8.466718608903e-03
    42   -3.286206078841e-03
    43    3.375567471789e-03
    44    1.344228297154e-08
    45   -6.284644430455e-03
    46    3.284052742481e-04
    47    3.139144230798e-04
    48   -7.007520564469e-01
    49   -3.091529878894e-02
    50   -1.278545481120e-03
    51    1.314677781378e-03
    52    1.680322986426e-08
    53    1.990624615679e-02
    54    8.481390626311e-03
    55   -3.291817519797e-03
    56    3.381377550152e-03
    57   -1.300621412619e-09
    58    6.295604600918e-03
    59   -3.290064831373e-04
    60   -3.144832419581e-04
Sym=X
Ene= -10.214351
Spin=Alpha
Occup=1
     1    4.805853005599e-04
     2    7.524990874592e-05
     3   -2.750093284591e-05
     4    3.119007016990e-05
     5   -6.801726065001e-10
     6    1.866413715592e-03
     7   -5.704538230528e-05
     8   -1.148023884286e-05
     9    3.650502464807e-05
    10   -1.504385814783e-11
    11    2.681481291907e-03
    12    1.307187407023e-05
    13    1.421045710593e-04
    14   -4.588036516307e-06
    15    1.693812433438e-11
    16    4.727962316714e-04
    17    7.383824072803e-05
    18    2.697772195909e-05
    19   -3.058268671188e-05
    20   -5.136860300804e-11
    21    1.856691660513e-03
    22   -5.752043433275e-05
    23    9.602914167990e-06
    24   -3.635835003924e-05
    25   -4.932981641839e-11
    26    2.723295883107e-03
    27    1.378163245976e-05
    28   -1.450081234487e-04
    29    4.572638592955e-06
    30    6.483060072729e-11
    31   -3.082071116363e-05
    32    1.448982601477e-04
    33   -3.055595412123e-05
    34    1.474115466870e-04
    35    2.057496943102e-02
    36   -6.663547226460e-03
    37    3.195463234591e-03
    38   -3.316848053707e-03
    39    2.733356561775e-09
    40    6.942433982544e-01
    41    3.071955189895e-02
    42    1.094762489792e-03
    43   -1.050704891083e-03
    44   -2.159618523508e-08
    45   -4.280268758411e-05
    46   -6.239851622773e-03
    47   -6.290049150689e-03
    48    2.093019830097e-02
    49   -6.777472678852e-03
    50   -3.250120959120e-03
    51    3.373689977209e-03
    52    8.789025772718e-09
    53    7.061285802367e-01
    54    3.124534411221e-02
    55   -1.113813368506e-03
    56    1.068426092392e-03
    57   -3.672974862768e-08
    58   -4.357313045531e-05
    59   -6.346510991383e-03
    60   -6.397829519929e-03
Sym=X
Ene= -10.214351
Spin=Alpha
Occup=1
     1    4.514530420833e-04
     2    8.316237281793e-05
     3   -2.990912507332e-05
     4    3.538324091579e-05
     5   -6.672572828990e-10
     6    5.555289391063e-04
     7    2.837650876972e-05
     8   -1.103523042178e-04
     9    8.318565592006e-06
    10    3.721971438659e-12
    11   -2.484210776290e-03
    12   -4.176992768435e-05
    13   -1.719764797529e-04
    14   -8.213246212181e-07
    15    9.441361742053e-13
    16   -4.594859429756e-04
    17   -8.443904044152e-05
    18   -3.036007047914e-05
    19    3.590530230106e-05
    20    5.153132419286e-11
    21   -5.870368501271e-04
    22   -2.740423964623e-05
    23   -1.105315876444e-04
    24    8.935642907456e-06
    25    3.006343682828e-11
    26    2.438397515598e-03
    27    4.154404339426e-05
    28   -1.695435556594e-04
    29   -8.997920629943e-07
    30    6.504263127159e-11
    31   -1.534186067695e-05
    32   -1.494604437980e-04
    33    1.586237975962e-05
    34    1.469766631202e-04
    35   -2.089546382016e-02
    36    6.778659774993e-03
    37   -3.251352691679e-03
    38    3.374239593468e-03
    39   -2.783744456370e-09
    40   -7.061325443744e-01
    41   -3.124648360654e-02
    42   -1.114117781708e-03
    43    1.068980536808e-03
    44    2.197006714585e-08
    45    4.268982112143e-05
    46    6.346658088691e-03
    47    6.397669071862e-03
    48    2.054670109606e-02
    49   -6.664415493629e-03
    50   -3.196580889124e-03
    51    3.317503787113e-03
    52    8.642051654318e-09
    53    6.942472678092e-01
    54    3.072044527834e-02
    55   -1.095669255997e-03
    56    1.050726011064e-03
    57   -3.611382664285e-08
    58   -4.200832254863e-05
    59   -6.239672515630e-03
    60   -6.290082133045e-03
Sym=X
Ene= -1.032639
Spin=Alpha
Occup=1
     1   -1.125118836473e-01
     2    2.862666154236e-01
     3   -5.636379060494e-02
     4   -1.376269959992e-02
     5    6.796536452964e-07
     6   -9.657009919397e-02
     7    2.379679783134e-01
     8   -1.121009914874e-02
     9   -6.653146699313e-02
    10   -4.794784859427e-07
    11   -9.838837195942e-02
    12    2.431226176573e-01
    13    3.406782990797e-02
    14   -5.759884491620e-02
    15   -1.749940394111e-07
    16   -1.125091335622e-01
    17    2.862590466204e-01
    18    5.636308246730e-02
    19    1.376206060946e-02
    20   -9.637976951488e-08
    21   -9.656914460537e-02
    22    2.379655789344e-01
    23    1.121159336945e-02
    24    6.653046642067e-02
    25   -2.643480346806e-07
    26   -9.838983676217e-02
    27    2.431264166298e-01
    28   -3.406646835593e-02
    29    5.760090546195e-02
    30   -8.770024374250e-07
    31    3.574246459787e-02
    32    3.799626859679e-02
    33    3.574228655801e-02
    34    3.799688263862e-02
    35   -4.036234742097e-02
    36    1.023132295753e-01
    37    2.511264410964e-02
    38    1.537426077376e-02
    39   -6.929427422022e-07
    40   -2.073898585624e-02
    41    5.238131387888e-02
    42    1.870923481283e-02
    43   -1.118733276006e-02
    44   -3.556231815164e-07
    45    1.704410965808e-02
    46    6.868431675484e-03
    47    1.052698822688e-02
    48   -4.036388806157e-02
    49    1.023171405032e-01
    50   -2.511241177802e-02
    51   -1.537288380513e-02
    52   -1.024404138701e-06
    53   -2.073996479296e-02
    54    5.238410814554e-02
    55   -1.871221062086e-02
    56    1.118559611159e-02
    57   -1.891641709848e-07
    58    1.704457823258e-02
    59    6.868567570493e-03
    60    1.052780164061e-02
Sym=X
Ene= -0.965373
Spin=Alpha
Occup=1
     1    1.121989933888e-01
     2   -2.994384923576e-01
     3   -1.760560395548e-02
     4    8.742832680593e-03
     5   -6.944253614329e-07
     6    3.865819748992e-02
     7   -9.944637443578e-02
     8   -6.662713943863e-02
     9    3.363305009230e-02
    10    3.263809068198e-07
    11   -5.361365458283e-02
    12    1.385185222742e-01
    13   -4.758688226577e-02
    14   -5.769491701274e-02
    15   -1.876422710471e-07
    16   -1.122008763236e-01
    17    2.994428385410e-01
    18   -1.760242133526e-02
    19    8.742420573015e-03
    20   -1.518025249972e-08
    21   -3.866128166479e-02
    22    9.945418515430e-02
    23   -6.662602045863e-02
    24    3.363464408326e-02
    25   -1.274833558366e-07
    26    5.361114228527e-02
    27   -1.385122143627e-01
    28   -4.758916719848e-02
    29   -5.769424776132e-02
    30    7.370677054462e-07
    31   -2.155464245536e-02
    32    3.279173804293e-02
    33    2.155622251780e-02
    34   -3.279089291981e-02
    35   -1.046875115479e-01
    36    2.698882350139e-01
    37    8.072387815030e-03
    38    4.681412351523e-02
    39   -2.159677019693e-06
    40   -7.790024484725e-02
    41    2.024892986063e-01
    42    5.402102064646e-02
    43   -3.985427662617e-02
    44   -1.685911425705e-06
    45    5.133581552911e-02
    46    3.350328163168e-02
    47    4.169933981616e-02
    48    1.046895338027e-01
    49   -2.698938770397e-01
    50    8.068941146936e-03
    51    4.680987153040e-02
    52    3.043099597284e-06
    53    7.790205715248e-02
    54   -2.024945075947e-01
    55    5.403156432732e-02
    56   -3.984595902670e-02
    57    9.001936299050e-07
    58   -5.133654902522e-02
    59   -3.350274494195e-02
    60   -4.170203486072e-02
Sym=X
Ene= -0.925766
Spin=Alpha
Occup=1
     1   -5.179465874409e-03
     2    1.765174948258e-02
     3    9.554194384041e-02
     4    5.762431830292e-03
     5   -8.310304269312e-08
     6    4.094113897168e-02
     7   -1.053233454206e-01
     8    3.020107048212e-02
     9    2.175187936394e-02
    10    1.592787511101e-07
    11    3.235928284733e-02
    12   -8.332761108377e-02
    13   -4.892610305630e-02
    14    4.336809401573e-03
    15    6.298685386299e-09
    16   -5.183884035635e-03
    17    1.766362709606e-02
    18   -9.553986531622e-02
    19   -5.763988285664e-03
    20    1.406630663731e-08
    21    4.093776222966e-02
    22   -1.053144996961e-01
    23   -3.020338142234e-02
    24   -2.175008548655e-02
    25    1.254162613805e-07
    26    3.236008057507e-02
    27   -8.332980166342e-02
    28    4.892347818709e-02
    29   -4.339894518312e-03
    30    1.252119099668e-07
    31   -1.726510112956e-02
    32   -7.022118789183e-03
    33   -1.726319533118e-02
    34   -7.022136642935e-03
    35   -1.209590402318e-01
    36    3.153033251550e-01
    37   -5.804024031535e-02
    38    6.601919134713e-02
    39   -2.889036910137e-06
    40   -1.225467288689e-01
    41    3.251879464854e-01
    42    6.525821866161e-02
    43   -5.884337781072e-02
    44   -3.034623678838e-06
    45    6.458046601380e-02
    46    6.261132413168e-02
    47    6.814224074394e-02
    48   -1.209585645858e-01
    49    3.153029968892e-01
    50    5.804436054713e-02
    51   -6.601337368015e-02
    52   -3.962495190361e-06
    53   -1.225461747362e-01
    54    3.251865221326e-01
    55   -6.527444614457e-02
    56    5.882763933269e-02
    57   -1.621551775369e-06
    58    6.457997014086e-02
    59    6.260809819808e-02
    60    6.814546777444e-02
Sym=X
Ene= -0.906479
Spin=Alpha
Occup=1
     1    2.300036892406e-02
     2   -6.329995268061e-02
     3    3.646715576365e-02
     4   -1.404625809024e-01
     5   -2.406970917558e-07
     6    1.372260545282e-01
     7   -3.669580475722e-01
     8    4.593186564273e-02
     9    2.147882368752e-02
    10    6.785607265457e-07
    11    1.158730106220e-01
    12   -3.109948917497e-01
    13   -7.111699406753e-02
    14   -2.757183565060e-02
    15    3.015446666324e-08
    16   -2.300026556401e-02
    17    6.329937409463e-02
    18    3.646765849735e-02
    19   -1.404608124153e-01
    20   -1.252319999023e-07
    21   -1.372261344020e-01
    22    3.669582262767e-01
    23    4.593287114697e-02
    24    2.147916960182e-02
    25   -4.468883220534e-07
    26   -1.158741132659e-01
    27    3.109980578254e-01
    28   -7.111642960349e-02
    29   -2.757088993088e-02
    30   -8.133430088189e-07
    31   -8.540454923282e-02