
Running Job 1 of 1 dvb_td.in
qchem dvb_td.in_7521.0 /scratch/qc_lscratch/qchem7521/ 1
/usr/local/qc4.4mpich/bin/mpi/mpirun_qchem -machinefile /usr/local/qc4.4mpich/bin/mpi/machines -np 1 /usr/local/qc4.4mpich/exe/qcprog.exe dvb_td.in_7521.0 /scratch/qc_lscratch/qchem7521/

Process 0 of 1 is on horangi.pc2.chemie.uni-siegen.de - thread support 0
initial socket setup ...start
initial socket setup ...done 
now start server 0 ... 
horangi.pc2.chemie.uni-siegen.de 141.99.71
                  Welcome to Q-Chem
     A Quantum Leap Into The Future Of Chemistry


 Q-Chem 4.4, Q-Chem, Inc., Pleasanton, CA (2016)

 Y. Shao,  Z. Gan,  E. Epifanovsky,  A. T. B. Gilbert,  M. Wormit,  
 J. Kussmann,  A. W. Lange,  A. Behn,  J. Deng,  X. Feng,  D. Ghosh,  
 M. Goldey,  P. R. Horn,  L. D. Jacobson,  I. Kaliman,  R. Z. Khaliullin,  
 T. Kus,  A. Landau,  J. Liu,  E. I. Proynov,  Y. M. Rhee,  R. M. Richard,  
 M. A. Rohrdanz,  R. P. Steele,  E. J. Sundstrom,  H. L. Woodcock III,  
 P. M. Zimmerman,  D. Zuev,  B. Albrecht,  E. Alguire,  B. Austin,  
 S. A. Baeppler,  G. J. O. Beran,  Y. A. Bernard,  E. Berquist,  
 K. Brandhorst,  K. B. Bravaya,  S. T. Brown,  D. Casanova,  C.-M. Chang,  
 Y. Chen,  S. H. Chien,  K. D. Closser,  M. P. Coons,  D. L. Crittenden,  
 S. Dasgupta,  M. Diedenhofen,  R. A. DiStasio Jr.,  H. Do,  A. D. Dutoi,  
 R. G. Edgar,  P.-T. Fang,  S. Fatehi,  Q. Feng,  L. Fusti-Molnar,  
 A. Ghysels,  A. Golubeva-Zadorozhnaya,  J. Gomes,  A. Gunina,  
 M. W. D. Hanson-Heine,  P. H. P. Harbach,  A. W. Hauser,  E. G. Hohenstein,  
 Z. C. Holden,  K. Hui,  T.-C. Jagau,  H. Ji,  B. Kaduk,  K. Khistyaev,  
 Jaehoon Kim,  Jihan Kim,  R. A. King,  P. Klunzinger,  D. Kosenkov,  
 T. Kowalczyk,  C. M. Krauter,  A. Kunitsa,  K. U. Lao,  A. Laurent,  
 K. V. Lawler,  D. Lefrancois,  S. Lehtola,  S. V. Levchenko,  C. Y. Lin,  
 Y.-S. Lin,  F. Liu,  E. Livshits,  R. C. Lochan,  A. Luenser,  P. Manohar,  
 S. F. Manzer,  S.-P. Mao,  Y. Mao,  N. Mardirossian,  A. V. Marenich,  
 L. A. Martinez-Martinez,  S. A. Maurer,  N. J. Mayhall,  J.-M. Mewes,  
 A. F. Morrison,  K. Nanda,  C. M. Oana,  R. Olivares-Amaya,  D. P. O'Neill,  
 J. A. Parkhill,  T. M. Perrine,  R. Peverati,  P. A. Pieniazek,  F. Plasser,  
 A. Prociuk,  D. R. Rehn,  E. Rosta,  N. J. Russ,  N. Sergueev,  
 S. M. Sharada,  S. Sharma,  D. W. Small,  A. Sodt,  T. Stauch,  T. Stein,  
 D. Stuck,  Y.-C. Su,  A. J. W. Thom,  T. Tsuchimochi,  L. Vogt,  O. Vydrov,  
 T. Wang,  M. A. Watson,  J. Wenzel,  A. White,  C. F. Williams,  
 V. Vanovschi,  S. Yeganeh,  S. R. Yost,  Z.-Q. You,  I. Y. Zhang,  X. Zhang,  
 Y. Zhao,  B. R. Brooks,  G. K. L. Chan,  D. M. Chipman,  C. J. Cramer,  
 W. A. Goddard III,  M. S. Gordon,  W. J. Hehre,  A. Klamt,  
 H. F. Schaefer III,  M. W. Schmidt,  C. D. Sherrill,  D. G. Truhlar,  
 A. Warshel,  X. Xu,  A. Aspuru-Guzik,  R. Baer,  A. T. Bell,  N. A. Besley,  
 J.-D. Chai,  A. Dreuw,  B. D. Dunietz,  T. R. Furlani,  S. R. Gwaltney,  
 C.-P. Hsu,  Y. Jung,  J. Kong,  D. S. Lambrecht,  W. Liang,  C. Ochsenfeld,  
 V. A. Rassolov,  L. V. Slipchenko,  J. E. Subotnik,  T. Van Voorhis,  
 J. M. Herbert,  A. I. Krylov,  P. M. W. Gill,  M. Head-Gordon

 Contributors to earlier versions of Q-Chem not listed above: 
 R. D. Adamson,  J. Baker,  E. F. C. Byrd,  A. K. Chakraborty,  C.-L. Cheng,  
 H. Dachsel,  R. J. Doerksen,  G. Hawkins,  A. Heyden,  S. Hirata,  
 G. Kedziora,  F. J. Keil,  C. Kelley,  P. P. Korambath,  W. Kurlancheek,  
 A. M. Lee,  M. S. Lee,  D. Liotard,  I. Lotan,  P. E. Maslen,  N. Nair,  
 D. Neuhauser,  R. Olson,  B. Peters,  J. Ritchie,  N. E. Schultz,  
 N. Shenvi,  A. C. Simmonett,  K. S. Thanthiriwatte,  Q. Wu,  W. Zhang

 Please cite Q-Chem as follows:
 Y. Shao et al., Mol. Phys. 113, 184-215 (2015)
 DOI: 10.1080/00268976.2014.952696

 Q-Chem 4.4.0 for Intel X86 Linux

 Parts of Q-Chem use Armadillo 5.200.1 (Boston Tea Smuggler).
 http://arma.sourceforge.net/

 Q-Chem begins on Tue Oct 25 11:10:38 2016  

Host: 
0

     Scratch files written to /scratch/qc_lscratch/qchem7521//
 Apr2716 1281_ 20995  20993 5638   
 Parallel job on  1  processors
Processing $rem in /usr/local/qc4.4mpich/config/preferences.
 MEM_TOTAL  4000 

Checking the input file for inconsistencies... 	...done.

--------------------------------------------------------------
User input:
--------------------------------------------------------------
$comment
Divinylbenzene, single point, TD-DFT (5 singlets, 5 triplets), RB3LYP/STO-3G
$end

$rem
method = b3lyp
basis = sto-3g
cis_n_roots = 5
cis_ampl_print = true
print_orbitals = 5000
molden_format = true
purecart = 2222
$end

$molecule
0 1
C                  0.27867948   -1.36683162    0.00000000
C                  1.32303041   -0.44173575    0.00000000
C                  1.04434506    0.92484978    0.00000000
C                 -0.27867948    1.36683162    0.00000000
C                 -1.32303041    0.44173575    0.00000000
C                 -1.04434506   -0.92484978    0.00000000
H                  2.36595443   -0.79037726    0.00000000
H                  1.86746094    1.65407997    0.00000000
H                 -2.36595443    0.79037726    0.00000000
H                 -1.86746094   -1.65407997    0.00000000
C                 -0.58659169    2.87589931    0.00000000
C                  0.36350188    3.80076420    0.00000000
H                 -1.65647768    3.12394312    0.00000000
H                  0.14429560    4.87693235    0.00000000
H                  1.43338788    3.55272039    0.00000000
C                  0.58659169   -2.87589931    0.00000000
C                 -0.36350188   -3.80076420    0.00000000
H                  1.65647768   -3.12394312    0.00000000
H                 -0.14429560   -4.87693235    0.00000000
H                 -1.43338788   -3.55272039    0.00000000
$end
--------------------------------------------------------------
 ----------------------------------------------------------------
             Standard Nuclear Orientation (Angstroms)
    I     Atom           X                Y                Z
 ----------------------------------------------------------------
    1      C       1.3668132833     0.2787694006     0.0000000000
    2      C       0.4416487095     1.3230594681     0.0000000000
    3      C      -0.9249184834     1.0442842137     0.0000000000
    4      C      -1.3668132833    -0.2787694006     0.0000000000
    5      C      -0.4416487095    -1.3230594681     0.0000000000
    6      C       0.9249184834    -1.0442842137     0.0000000000
    7      H       0.7902216068     2.3660064222     0.0000000000
    8      H      -1.6542028230     1.8673521173     0.0000000000
    9      H      -0.7902216068    -2.3660064222     0.0000000000
   10      H       1.6542028230    -1.8673521173     0.0000000000
   11      C      -2.8758607131    -0.5867808885     0.0000000000
   12      C      -3.8007881058     0.3632518344     0.0000000000
   13      H      -3.1238341368    -1.6566831945     0.0000000000
   14      H      -4.8769418324     0.1439747559     0.0000000000
   15      H      -3.5528146821     1.4331541504     0.0000000000
   16      C       2.8758607131     0.5867808885     0.0000000000
   17      C       3.8007881058    -0.3632518344     0.0000000000
   18      H       3.1238341368     1.6566831945     0.0000000000
   19      H       4.8769418324    -0.1439747559     0.0000000000
   20      H       3.5528146821    -1.4331541504     0.0000000000
 ----------------------------------------------------------------
 Molecular Point Group                 C2h   NOp =  4
 Largest Abelian Subgroup              C2h   NOp =  4
 Nuclear Repulsion Energy =   450.0061381957 hartrees
 There are       35 alpha and       35 beta electrons

 Q-Chem warning in module /home/scratch/svnadmin/1281_mschneider/qchem/forms1/BasisType.C, line 1452:

 You are not using the predefined 5D/6D in this basis set.

 Requested basis set is STO-3G
 There are 30 shells and 60 basis functions

 Total QAlloc Memory Limit   4000 MB
 Mega-Array Size        61 MB
 MEM_STATIC part        62 MB
 A cutoff of  1.0D-11 yielded    402 shell pairs
 There are      1776 function pairs
 
 -------------------------------------------------------
 OpenMP Integral Computing Module                       
 Release: version 1.0, May 2013, Q-Chem Inc. Pittsburgh 
 -------------------------------------------------------
 Integral Job Info:
 Integral job number is                      11
 Integral operator is                         1
 short-range coefficients                     0
 long-range coefficients              100000000
 Omega coefficients                           0
 if combine SR and LR in K                    0
 Integral screening is                        0
 Integral computing path is                   2
 max size of driver memory is            800000
 size of driver memory is                 45569
 size of scratch memory is               945100
 max col of scratch BK array                289
 max len of scratch array in speh3           22
 max len of scratch index in speh4            8
 max int batch size is                      520
 min int batch size is                       52
 fixed nKL is                                52
 max L of basis functions is                  1
 order of int derivative is                   0
 number of shells is                         30
 number of basis is                          60
 number of cartesian basis is                60
 number of contracted shell pairs           402
 number of primitive shell pairs           2441
 maxK2 (contraction) of shell pair            9
 max number of K2 of shell pair               1
 max number of CS2 of shell pair             48
 max number of PS2 of shell pair            360
 mem total for path MDJ                   19002
 -------------------------------------------------------
 Smallest overlap matrix eigenvalue = 1.71E-01

 Scale SEOQF with 1.000000e-01/1.000000e-01/1.000000e+00

 Standard Electronic Orientation quadrupole field applied
 Nucleus-field energy     =     0.0000000194 hartrees
 Guess from superposition of atomic densities
 Warning:  Energy on first SCF cycle will be non-variational
 A restricted hybrid HF-DFT SCF calculation will be
 performed using Pulay DIIS extrapolation
 Exchange:     0.2000 Hartree-Fock + 0.0800 Slater + 0.7200 B88
 Correlation:  0.1900 VWN1RPA + 0.8100 LYP
 Using SG-1 standard quadrature grid
 SCF converges when DIIS error is below 1.0E-08
 ---------------------------------------
  Cycle       Energy         DIIS Error
 ---------------------------------------
    1    -381.9237697848      1.39E-01
    2    -382.2936857014      3.10E-03
    3    -382.2938864924      3.37E-03
    4    -382.2996520491      1.12E-03
    5    -382.3003056434      3.23E-04
    6    -382.3003614781      3.18E-05
    7    -382.3003620917      4.08E-06
    8    -382.3003620825      8.08E-07
    9    -382.3003620379      2.35E-07
   10    -382.3003620412      1.01E-07
   11    -382.3003620405      9.12E-09 Convergence criterion met
 ---------------------------------------
 SCF time:  CPU 18.37 s  wall 19.42 s
 SCF   energy in the final basis set = -382.3003620405
 Total energy in the final basis set = -382.3003620405
 Direct TDDFT/TDA calculation will be performed
 Exchange:     0.2000 Hartree-Fock + 0.0800 Slater + 0.7200 B88
 Correlation:  0.1900 VWN1RPA + 0.8100 LYP
 Using SG-1 standard quadrature grid
 Triplet excitation energies requested
 Singlet excitation energies requested
 CIS energy converged when residual is below 10e- 6
 ---------------------------------------------------
 Iter    Rts Conv    Rts Left    Ttl Dev     Max Dev
 ---------------------------------------------------
   1         0           5      0.003726    0.001289
   2         0           5      0.000616    0.000297
   3         0           5      0.001152    0.000794
   4         0           5      0.000118    0.000072
   5         1           4      0.000012    0.000007
   6         5           0      0.000002    0.000001    Roots Converged
 ---------------------------------------------------
 Triplets done: starting singlet calculation
 ---------------------------------------------------
 Iter    Rts Conv    Rts Left    Ttl Dev     Max Dev
 ---------------------------------------------------
   7         0           5      0.013668    0.004814
   8         0           5      0.005755    0.002240
   9         0           5      0.003426    0.001907
  10         0           5      0.000835    0.000510
  11         2           3      0.000333    0.000248
  12         3           2      0.000088    0.000066
  13         3           2      0.000015    0.000013
  14         4           1      0.000002    0.000001
  15         5           0      0.000001    0.000001    Roots Converged
 ---------------------------------------------------
 
 
 ---------------------------------------------------
         TDDFT/TDA Excitation Energies              
 ---------------------------------------------------

 Excited state   1: excitation energy (eV) =    3.6052
    Total energy for state   1:   -382.167872199533
    Multiplicity: Triplet 
    Trans. Mom.:  0.0000 X   0.0000 Y   0.0000 Z
    Strength   :     0.0000000000
    D( 28) --> V(  5) amplitude =  0.0750
    D( 32) --> V(  4) amplitude = -0.1414
    D( 33) --> V(  3) amplitude =  0.2618
    D( 34) --> V(  1) amplitude =  0.0142
    D( 34) --> V(  2) amplitude =  0.2125
    D( 35) --> V(  1) amplitude =  0.9266

 Excited state   2: excitation energy (eV) =    4.5675
    Total energy for state   2:   -382.132508661759
    Multiplicity: Triplet 
    Trans. Mom.:  0.0000 X   0.0000 Y   0.0000 Z
    Strength   :     0.0000000000
    D( 28) --> V(  1) amplitude =  0.0354
    D( 28) --> V(  4) amplitude =  0.0584
    D( 32) --> V(  3) amplitude = -0.2631
    D( 32) --> V(  5) amplitude = -0.0542
    D( 33) --> V(  1) amplitude =  0.7012
    D( 33) --> V(  4) amplitude =  0.2381
    D( 35) --> V(  3) amplitude =  0.6096
    D( 35) --> V(  5) amplitude =  0.0293

 Excited state   3: excitation energy (eV) =    4.9905
    Total energy for state   3:   -382.116965984686
    Multiplicity: Triplet 
    Trans. Mom.:  0.0000 X   0.0000 Y   0.0000 Z
    Strength   :     0.0000000000
    D( 28) --> V(  3) amplitude = -0.0405
    D( 28) --> V(  5) amplitude =  0.0290
    D( 32) --> V(  1) amplitude =  0.1054
    D( 32) --> V(  2) amplitude =  0.1167
    D( 32) --> V(  4) amplitude =  0.0201
    D( 33) --> V(  3) amplitude = -0.0789
    D( 33) --> V(  5) amplitude = -0.0336
    D( 34) --> V(  1) amplitude =  0.7005
    D( 34) --> V(  2) amplitude =  0.2854
    D( 34) --> V(  4) amplitude = -0.1100
    D( 35) --> V(  1) amplitude = -0.0539
    D( 35) --> V(  2) amplitude =  0.6085
    D( 35) --> V(  4) amplitude = -0.0832

 Excited state   4: excitation energy (eV) =    5.0940
    Total energy for state   4:   -382.113160868434
    Multiplicity: Triplet 
    Trans. Mom.:  0.0000 X   0.0000 Y   0.0000 Z
    Strength   :     0.0000000000
    D( 28) --> V(  3) amplitude = -0.0987
    D( 28) --> V(  5) amplitude =  0.0846
    D( 32) --> V(  1) amplitude =  0.2599
    D( 32) --> V(  2) amplitude = -0.0573
    D( 32) --> V(  4) amplitude =  0.0301
    D( 33) --> V(  3) amplitude = -0.1714
    D( 33) --> V(  5) amplitude = -0.0814
    D( 34) --> V(  1) amplitude = -0.2206
    D( 34) --> V(  2) amplitude =  0.8379
    D( 34) --> V(  4) amplitude =  0.0416
    D( 35) --> V(  1) amplitude = -0.1388
    D( 35) --> V(  2) amplitude = -0.2449
    D( 35) --> V(  4) amplitude = -0.2042

 Excited state   5: excitation energy (eV) =    5.5401
    Total energy for state   5:   -382.096766766367
    Multiplicity: Triplet 
    Trans. Mom.:  0.0000 X   0.0000 Y   0.0000 Z
    Strength   :     0.0000000000
    D( 32) --> V(  2) amplitude =  0.0904
    D( 34) --> V(  1) amplitude = -0.6650
    D( 34) --> V(  2) amplitude =  0.0384
    D( 34) --> V(  4) amplitude =  0.0595
    D( 35) --> V(  2) amplitude =  0.7378

 Excited state   6: excitation energy (eV) =    5.6388
    Total energy for state   6:   -382.093141033036
    Multiplicity: Singlet 
    Trans. Mom.: -0.1222 X   0.0442 Y   0.0000 Z
    Strength   :     0.0023322344
    D( 32) --> V(  2) amplitude = -0.0678
    D( 34) --> V(  1) amplitude =  0.7247
    D( 34) --> V(  4) amplitude = -0.0500
    D( 35) --> V(  1) amplitude = -0.0477
    D( 35) --> V(  2) amplitude = -0.6819

 Excited state   7: excitation energy (eV) =    6.0376
    Total energy for state   7:   -382.078483979217
    Multiplicity: Singlet 
    Trans. Mom.:  2.5216 X  -0.0404 Y   0.0000 Z
    Strength   :     0.9407714949
    D( 15) --> V( 11) amplitude = -0.0155
    D( 17) --> V( 10) amplitude =  0.0157
    D( 21) --> V(  9) amplitude =  0.0167
    D( 21) --> V( 11) amplitude = -0.0144
    D( 22) --> V( 16) amplitude =  0.0173
    D( 23) --> V( 11) amplitude =  0.0159
    D( 23) --> V( 21) amplitude = -0.0145
    D( 23) --> V( 24) amplitude =  0.0190
    D( 24) --> V(  7) amplitude = -0.0167
    D( 25) --> V(  9) amplitude = -0.0144
    D( 26) --> V( 15) amplitude =  0.0196
    D( 26) --> V( 22) amplitude =  0.0223
    D( 27) --> V(  7) amplitude =  0.0146
    D( 27) --> V( 10) amplitude =  0.0178
    D( 27) --> V( 17) amplitude =  0.0164
    D( 28) --> V(  5) amplitude = -0.0464
    D( 29) --> V( 16) amplitude =  0.0315
    D( 30) --> V(  7) amplitude =  0.0314
    D( 30) --> V(  8) amplitude = -0.0203
    D( 30) --> V( 17) amplitude = -0.0268
    D( 30) --> V( 20) amplitude =  0.0200
    D( 31) --> V( 20) amplitude = -0.0143
    D( 32) --> V(  1) amplitude = -0.0382
    D( 32) --> V(  2) amplitude = -0.0167
    D( 32) --> V(  4) amplitude =  0.0841
    D( 33) --> V(  3) amplitude = -0.1237
    D( 34) --> V(  1) amplitude =  0.0752
    D( 34) --> V(  2) amplitude =  0.1279
    D( 35) --> V(  1) amplitude =  0.9669
    D( 35) --> V(  4) amplitude =  0.0307

 Excited state   8: excitation energy (eV) =    6.6210
    Total energy for state   8:   -382.057044233592
    Multiplicity: Singlet 
    Trans. Mom.:  0.0000 X   0.0000 Y   0.0000 Z
    Strength   :     0.0000000000
    D( 32) --> V(  3) amplitude = -0.0404
    D( 32) --> V(  5) amplitude =  0.0177
    D( 33) --> V(  1) amplitude =  0.7612
    D( 33) --> V(  4) amplitude = -0.0720
    D( 35) --> V(  3) amplitude = -0.6427

 Excited state   9: excitation energy (eV) =    7.3316
    Total energy for state   9:   -382.030929214971
    Multiplicity: Singlet 
    Trans. Mom.: -0.5413 X   0.9349 Y   0.0000 Z
    Strength   :     0.2096083796
    D( 17) --> V( 12) amplitude =  0.0168
    D( 19) --> V(  7) amplitude =  0.0188
    D( 19) --> V(  8) amplitude = -0.0175
    D( 19) --> V( 14) amplitude =  0.0149
    D( 21) --> V( 13) amplitude =  0.0157
    D( 22) --> V( 18) amplitude = -0.0205
    D( 23) --> V( 13) amplitude = -0.0186
    D( 23) --> V( 16) amplitude = -0.0285
    D( 25) --> V( 16) amplitude = -0.0275
    D( 26) --> V( 13) amplitude = -0.0266
    D( 26) --> V( 16) amplitude = -0.0181
    D( 29) --> V( 18) amplitude = -0.0194
    D( 30) --> V(  8) amplitude =  0.0173
    D( 30) --> V( 14) amplitude = -0.0231
    D( 30) --> V( 19) amplitude =  0.0343
    D( 30) --> V( 25) amplitude =  0.0246
    D( 31) --> V(  7) amplitude = -0.0267
    D( 31) --> V( 17) amplitude =  0.0277
    D( 32) --> V(  1) amplitude = -0.0193
    D( 32) --> V(  2) amplitude = -0.3718
    D( 33) --> V(  3) amplitude =  0.0503
    D( 34) --> V(  1) amplitude =  0.5918
    D( 34) --> V(  2) amplitude = -0.0495
    D( 34) --> V(  4) amplitude =  0.2492
    D( 35) --> V(  1) amplitude = -0.0488
    D( 35) --> V(  2) amplitude =  0.6527

 Excited state  10: excitation energy (eV) =    7.5567
    Total energy for state  10:   -382.022659215735
    Multiplicity: Singlet 
    Trans. Mom.:  0.0000 X   0.0000 Y   0.0000 Z
    Strength   :     0.0000000000
    D( 28) --> V(  2) amplitude =  0.0250
    D( 32) --> V(  3) amplitude =  0.0175
    D( 33) --> V(  1) amplitude =  0.0503
    D( 33) --> V(  2) amplitude =  0.8857
    D( 34) --> V(  3) amplitude = -0.4536
    D( 34) --> V(  5) amplitude =  0.0366
    D( 35) --> V(  3) amplitude =  0.0644
 
 ---------------------------------------------------
  Timing summary (seconds)
  CPU time         42.64s
  System time       0.00s
  Wall time        44.36s
 
 --------------------------------------------------------------
             Orbital Energies (a.u.) and Symmetries
 --------------------------------------------------------------
 
 Alpha MOs, Restricted
 -- Occupied --                  
-10.018 -10.018 -10.008 -10.008 -10.007 -10.007 -10.006 -10.005
  1 Bu    1 Ag    2 Bu    2 Ag    3 Bu    3 Ag    4 Bu    4 Ag                 
 -9.992  -9.992  -0.818  -0.755  -0.721  -0.704  -0.670  -0.585
  5 Ag    5 Bu    6 Ag    6 Bu    7 Ag    7 Bu    8 Bu    8 Ag                 
 -0.561  -0.532  -0.512  -0.462  -0.439  -0.410  -0.400  -0.397
  9 Ag    9 Bu   10 Ag   11 Ag   10 Bu   11 Bu   12 Bu   12 Ag                 
 -0.376  -0.358  -0.349  -0.330  -0.305  -0.295  -0.281  -0.263
 13 Bu   14 Bu   13 Ag    1 Au   15 Bu   14 Ag   15 Ag    1 Bg                 
 -0.216  -0.198  -0.160
  2 Au    2 Bg    3 Bg                                                         
 -- Virtual --                   
  0.050   0.091   0.116   0.181   0.280   0.319   0.330   0.365
  3 Au    4 Au    4 Bg    5 Au    5 Bg   16 Ag   16 Bu   17 Bu                 
  0.370   0.413   0.416   0.422   0.446   0.469   0.496   0.539
 17 Ag   18 Bu   18 Ag   19 Bu   19 Ag   20 Bu   20 Ag   21 Ag                 
  0.571   0.587   0.610   0.627   0.646   0.693   0.743   0.806
 21 Bu   22 Ag   22 Bu   23 Bu   23 Ag   24 Ag   24 Bu   25 Ag                 
  0.816
 25 Bu                                                                         
 
 Beta MOs, Restricted
 -- Occupied --                  
-10.018 -10.018 -10.008 -10.008 -10.007 -10.007 -10.006 -10.005
  1 Bu    1 Ag    2 Bu    2 Ag    3 Bu    3 Ag    4 Bu    4 Ag                 
 -9.992  -9.992  -0.818  -0.755  -0.721  -0.704  -0.670  -0.585
  5 Ag    5 Bu    6 Ag    6 Bu    7 Ag    7 Bu    8 Bu    8 Ag                 
 -0.561  -0.532  -0.512  -0.462  -0.439  -0.410  -0.400  -0.397
  9 Ag    9 Bu   10 Ag   11 Ag   10 Bu   11 Bu   12 Bu   12 Ag                 
 -0.376  -0.358  -0.349  -0.330  -0.305  -0.295  -0.281  -0.263
 13 Bu   14 Bu   13 Ag    1 Au   15 Bu   14 Ag   15 Ag    1 Bg                 
 -0.216  -0.198  -0.160
  2 Au    2 Bg    3 Bg                                                         
 -- Virtual --                   
  0.050   0.091   0.116   0.181   0.280   0.319   0.330   0.365
  3 Au    4 Au    4 Bg    5 Au    5 Bg   16 Ag   16 Bu   17 Bu                 
  0.370   0.413   0.416   0.422   0.446   0.469   0.496   0.539
 17 Ag   18 Bu   18 Ag   19 Bu   19 Ag   20 Bu   20 Ag   21 Ag                 
  0.571   0.587   0.610   0.627   0.646   0.693   0.743   0.806
 21 Bu   22 Ag   22 Bu   23 Bu   23 Ag   24 Ag   24 Bu   25 Ag                 
  0.816
 25 Bu                                                                         
 --------------------------------------------------------------
 

                        RESTRICTED (RHF) MOLECULAR ORBITAL COEFFICIENTS
                         1         2         3         4         5         6
 eigenvalues:        -10.018   -10.018   -10.008   -10.008   -10.007   -10.007
   1  C 1   s        0.69897   0.69891   0.03424   0.03465   0.02642   0.01444
   2  C 1   s        0.03190   0.03167  -0.00338  -0.00331  -0.00777  -0.00334
   3  C 1   px      -0.00138  -0.00104  -0.00408  -0.00405   0.00329   0.00221
   4  C 1   py      -0.00028  -0.00021  -0.00066  -0.00062  -0.00183  -0.00465
   5  C 1   pz       0.00000   0.00000   0.00000   0.00000   0.00000   0.00000
   6  C 2   s       -0.01980  -0.02107  -0.01409  -0.02022   0.66689   0.65683
   7  C 2   s       -0.00816  -0.00729  -0.00087  -0.00103   0.03195   0.03155
   8  C 2   px      -0.00268  -0.00308   0.00002  -0.00005  -0.00181  -0.00186
   9  C 2   py       0.00356   0.00340   0.00021   0.00028  -0.00144  -0.00116
  10  C 2   pz       0.00000   0.00000   0.00000   0.00000   0.00000   0.00000
  11  C 3   s        0.01834  -0.01944   0.00930  -0.00952  -0.21114  -0.24153
  12  C 3   s        0.00811  -0.00721   0.00066  -0.00038  -0.01596  -0.01706
  13  C 3   px      -0.00106   0.00151   0.00011   0.00006  -0.00452  -0.00434
  14  C 3   py      -0.00432   0.00433  -0.00016   0.00027  -0.00051  -0.00046
  15  C 3   pz       0.00000   0.00000   0.00000   0.00000   0.00000   0.00000
  16  C 4   s       -0.69897   0.69891  -0.03423   0.03466  -0.02642   0.01444
  17  C 4   s       -0.03190   0.03167   0.00338  -0.00331   0.00777  -0.00334
  18  C 4   px      -0.00138   0.00104  -0.00408   0.00405   0.00329  -0.00221
  19  C 4   py      -0.00028   0.00021  -0.00066   0.00062  -0.00183   0.00465
  20  C 4   pz       0.00000   0.00000   0.00000   0.00000   0.00000   0.00000
  21  C 5   s        0.01980  -0.02107   0.01409  -0.02022  -0.66689   0.65683
  22  C 5   s        0.00816  -0.00729   0.00087  -0.00103  -0.03195   0.03155
  23  C 5   px      -0.00268   0.00308   0.00002   0.00005  -0.00181   0.00186
  24  C 5   py       0.00356  -0.00340   0.00021  -0.00028  -0.00144   0.00116
  25  C 5   pz       0.00000   0.00000   0.00000   0.00000   0.00000   0.00000
  26  C 6   s       -0.01834  -0.01944  -0.00930  -0.00952   0.21114  -0.24153
  27  C 6   s       -0.00811  -0.00721  -0.00066  -0.00038   0.01596  -0.01706
  28  C 6   px      -0.00106  -0.00151   0.00011  -0.00006  -0.00452   0.00434
  29  C 6   py      -0.00432  -0.00433  -0.00016  -0.00027  -0.00051   0.00046
  30  C 6   pz       0.00000   0.00000   0.00000   0.00000   0.00000   0.00000
  31  H 1   s        0.00035   0.00022   0.00011   0.00014  -0.00604  -0.00601
  32  H 2   s       -0.00035   0.00021   0.00003  -0.00006   0.00208   0.00227
  33  H 3   s       -0.00035   0.00022  -0.00011   0.00014   0.00604  -0.00601
  34  H 4   s        0.00035   0.00021  -0.00003  -0.00006  -0.00208   0.00227
  35  C 7   s        0.03384  -0.03449  -0.69947   0.69936  -0.01506   0.01505
  36  C 7   s        0.00659  -0.00669  -0.03061   0.03059  -0.00081   0.00065
  37  C 7   px       0.00379  -0.00384   0.00135  -0.00136   0.00005  -0.00009
  38  C 7   py       0.00089  -0.00090  -0.00105   0.00105  -0.00005  -0.00004
  39  C 7   pz       0.00000   0.00000   0.00000   0.00000   0.00000   0.00000
  40  C 8   s        0.00004  -0.00002   0.00557  -0.00556   0.00076  -0.00022
  41  C 8   s       -0.00055   0.00056   0.00779  -0.00779   0.00029  -0.00018
  42  C 8   px      -0.00031   0.00032   0.00323  -0.00322   0.00014  -0.00010
  43  C 8   py       0.00006  -0.00006  -0.00336   0.00336  -0.00006   0.00010
  44  C 8   pz       0.00000   0.00000   0.00000   0.00000   0.00000   0.00000
  45  H 5   s       -0.00038   0.00039   0.00637  -0.00636   0.00019  -0.00016
  46  H 6   s        0.00003  -0.00003  -0.00020   0.00020   0.00000   0.00000
  47  H 7   s        0.00015  -0.00014  -0.00017   0.00017  -0.00010  -0.00011
  48  C 9   s       -0.03384  -0.03449   0.69953   0.69930   0.01506   0.01505
  49  C 9   s       -0.00659  -0.00669   0.03061   0.03059   0.00081   0.00065
  50  C 9   px       0.00379   0.00384   0.00135   0.00136   0.00005   0.00009
  51  C 9   py       0.00089   0.00090  -0.00105  -0.00105  -0.00005   0.00004
  52  C 9   pz       0.00000   0.00000   0.00000   0.00000   0.00000   0.00000
  53  C 10  s       -0.00004  -0.00002  -0.00557  -0.00556  -0.00076  -0.00022
  54  C 10  s        0.00055   0.00056  -0.00779  -0.00779  -0.00029  -0.00018
  55  C 10  px      -0.00031  -0.00032   0.00323   0.00322   0.00014   0.00010
  56  C 10  py       0.00006   0.00006  -0.00336  -0.00336  -0.00006  -0.00010
  57  C 10  pz       0.00000   0.00000   0.00000   0.00000   0.00000   0.00000
  58  H 8   s        0.00038   0.00039  -0.00637  -0.00636  -0.00019  -0.00016
  59  H 9   s       -0.00003  -0.00003   0.00020   0.00020   0.00000   0.00000
  60  H 10  s       -0.00015  -0.00014   0.00017   0.00017   0.00010  -0.00011
                         7         8         9        10        11        12
 eigenvalues:        -10.006   -10.005    -9.992    -9.992    -0.818    -0.755
   1  C 1   s       -0.01234   0.02757   0.00038  -0.00037  -0.10817  -0.10190
   2  C 1   s        0.00406  -0.00726   0.00020  -0.00020   0.27107   0.26731
   3  C 1   px      -0.00052   0.00226   0.00004  -0.00005  -0.04920   0.02613
   4  C 1   py      -0.00495   0.00282   0.00004  -0.00005  -0.01067  -0.00398
   5  C 1   pz       0.00000   0.00000   0.00000   0.00000   0.00000   0.00000
   6  C 2   s        0.21269   0.24157   0.00064  -0.00024  -0.09908  -0.03615
   7  C 2   s        0.00302   0.00447  -0.00010   0.00000   0.24695   0.09405
   8  C 2   px       0.00406   0.00391  -0.00002   0.00010  -0.01382   0.06234
   9  C 2   py       0.00058   0.00068   0.00003  -0.00001  -0.05899  -0.02747
  10  C 2   pz       0.00000   0.00000   0.00000   0.00000   0.00000   0.00000
  11  C 3   s        0.66751   0.65714   0.00145   0.00138  -0.09962   0.04878
  12  C 3   s        0.02788   0.02698  -0.00003  -0.00001   0.24812  -0.12688
  13  C 3   px      -0.00047  -0.00085   0.00015   0.00017   0.03487   0.04579
  14  C 3   py      -0.00112  -0.00085   0.00000   0.00000  -0.04894   0.04858
  15  C 3   pz       0.00000   0.00000   0.00000   0.00000   0.00000   0.00000
  16  C 4   s        0.01234   0.02757   0.00038   0.00037  -0.10817   0.10190
  17  C 4   s       -0.00406  -0.00726   0.00020   0.00020   0.27107  -0.26731
  18  C 4   px      -0.00052  -0.00226  -0.00004  -0.00005   0.04920   0.02613
  19  C 4   py      -0.00495  -0.00282  -0.00004  -0.00005   0.01067  -0.00398
  20  C 4   pz       0.00000   0.00000   0.00000   0.00000   0.00000   0.00000
  21  C 5   s       -0.21269   0.24157   0.00064   0.00024  -0.09908   0.03615
  22  C 5   s       -0.00302   0.00447  -0.00010   0.00000   0.24695  -0.09405
  23  C 5   px       0.00406  -0.00391   0.00002   0.00010   0.01382   0.06234
  24  C 5   py       0.00058  -0.00068  -0.00003  -0.00001   0.05899  -0.02747
  25  C 5   pz       0.00000   0.00000   0.00000   0.00000   0.00000   0.00000
  26  C 6   s       -0.66751   0.65714   0.00145  -0.00138  -0.09962  -0.04878
  27  C 6   s       -0.02788   0.02698  -0.00003   0.00001   0.24812   0.12688
  28  C 6   px      -0.00047   0.00085  -0.00015   0.00017  -0.03487   0.04579
  29  C 6   py      -0.00112   0.00085   0.00000   0.00000   0.04894   0.04858
  30  C 6   pz       0.00000   0.00000   0.00000   0.00000   0.00000   0.00000
  31  H 1   s       -0.00173  -0.00216  -0.00002   0.00001   0.04325   0.02421
  32  H 2   s       -0.00597  -0.00601   0.00016   0.00016   0.04440  -0.03527
  33  H 3   s        0.00173  -0.00216  -0.00002  -0.00001   0.04325  -0.02421
  34  H 4   s        0.00597  -0.00601   0.00016  -0.00016   0.04440   0.03527
  35  C 7   s        0.00404   0.01466   0.00643   0.00642  -0.04362   0.11127
  36  C 7   s        0.00026   0.00067  -0.00726  -0.00726   0.11197  -0.28995
  37  C 7   px       0.00001  -0.00017   0.00320   0.00320   0.02459  -0.00182
  38  C 7   py      -0.00001   0.00005  -0.00332  -0.00332   0.01393  -0.04174
  39  C 7   pz       0.00000   0.00000   0.00000   0.00000   0.00000   0.00000
  40  C 8   s       -0.00125  -0.00167   0.70049   0.70049  -0.02298   0.08436
  41  C 8   s       -0.00017  -0.00037   0.03109   0.03109   0.05742  -0.21668
  42  C 8   px      -0.00011  -0.00020   0.00101   0.00101   0.01891  -0.05067
  43  C 8   py      -0.00006   0.00001  -0.00102  -0.00102  -0.01171   0.04050
  44  C 8   pz       0.00000   0.00000   0.00000   0.00000   0.00000   0.00000
  45  H 5   s       -0.00007  -0.00023   0.00009   0.00009   0.02189  -0.06452
  46  H 6   s       -0.00002  -0.00002  -0.00634  -0.00634   0.00933  -0.04451
  47  H 7   s        0.00023   0.00024  -0.00636  -0.00636   0.01363  -0.05155
  48  C 9   s       -0.00404   0.01466   0.00643  -0.00642  -0.04362  -0.11127
  49  C 9   s       -0.00026   0.00067  -0.00726   0.00726   0.11197   0.28995
  50  C 9   px       0.00001   0.00017  -0.00320   0.00320  -0.02459  -0.00182
  51  C 9   py      -0.00001  -0.00005   0.00332  -0.00332  -0.01393  -0.04174
  52  C 9   pz       0.00000   0.00000   0.00000   0.00000   0.00000   0.00000
  53  C 10  s        0.00125  -0.00167   0.70049  -0.70049  -0.02298  -0.08436
  54  C 10  s        0.00017  -0.00037   0.03109  -0.03109   0.05742   0.21668
  55  C 10  px      -0.00011   0.00020  -0.00101   0.00101  -0.01891  -0.05067
  56  C 10  py      -0.00006  -0.00001   0.00102  -0.00102   0.01171   0.04050
  57  C 10  pz       0.00000   0.00000   0.00000   0.00000   0.00000   0.00000
  58  H 8   s        0.00007  -0.00023   0.00009  -0.00009   0.02189   0.06452
  59  H 9   s        0.00002  -0.00002  -0.00634   0.00634   0.00933   0.04451
  60  H 10  s       -0.00023   0.00024  -0.00636   0.00636   0.01363   0.05155
                        13        14        15        16        17        18
 eigenvalues:         -0.721    -0.704    -0.670    -0.585    -0.561    -0.532
   1  C 1   s       -0.00360   0.01910   0.10214  -0.06220   0.06455  -0.01027
   2  C 1   s        0.01304  -0.05125  -0.27817   0.18164  -0.18996   0.02608
   3  C 1   px       0.09090   0.03038   0.05977   0.04764  -0.07591  -0.11884
   4  C 1   py       0.00681  -0.13013   0.02475   0.15197   0.16780  -0.04982
   5  C 1   pz       0.00000   0.00000   0.00000   0.00000   0.00000   0.00000
   6  C 2   s        0.04328   0.13570   0.03990  -0.02198  -0.10874  -0.04606
   7  C 2   s       -0.11193  -0.36276  -0.10928   0.06375   0.31812   0.13952
   8  C 2   px       0.03216   0.05060  -0.09669   0.17007   0.00399  -0.00265
   9  C 2   py       0.01835   0.00582   0.03859  -0.02137   0.08583  -0.00663
  10  C 2   pz       0.00000   0.00000   0.00000   0.00000   0.00000   0.00000
  11  C 3   s        0.03507   0.11683  -0.07771   0.09050   0.04309   0.02471
  12  C 3   s       -0.09049  -0.31192   0.21245  -0.25786  -0.12632  -0.07444
  13  C 3   px      -0.04875  -0.06808  -0.04327   0.00668   0.16831   0.07443
  14  C 3   py       0.00166  -0.03660  -0.06110  -0.05746   0.11397   0.03208
  15  C 3   pz       0.00000   0.00000   0.00000   0.00000   0.00000   0.00000
  16  C 4   s       -0.00360  -0.01910  -0.10214  -0.06220   0.06455   0.01027
  17  C 4   s        0.01304   0.05125   0.27817   0.18164  -0.18996  -0.02608
  18  C 4   px      -0.09090   0.03038   0.05977  -0.04764   0.07591  -0.11884
  19  C 4   py      -0.00681  -0.13013   0.02475  -0.15197  -0.16780  -0.04982
  20  C 4   pz       0.00000   0.00000   0.00000   0.00000   0.00000   0.00000
  21  C 5   s        0.04328  -0.13570  -0.03990  -0.02198  -0.10874   0.04606
  22  C 5   s       -0.11193   0.36276   0.10928   0.06375   0.31812  -0.13952
  23  C 5   px      -0.03216   0.05060  -0.09669  -0.17007  -0.00399  -0.00265
  24  C 5   py      -0.01835   0.00582   0.03859   0.02137  -0.08583  -0.00663
  25  C 5   pz       0.00000   0.00000   0.00000   0.00000   0.00000   0.00000
  26  C 6   s        0.03507  -0.11683   0.07771   0.09050   0.04309  -0.02471
  27  C 6   s       -0.09049   0.31192  -0.21245  -0.25786  -0.12632   0.07444
  28  C 6   px       0.04875  -0.06808  -0.04327  -0.00668  -0.16831   0.07443
  29  C 6   py      -0.00166  -0.03660  -0.06110   0.05746  -0.11397   0.03208
  30  C 6   pz       0.00000   0.00000   0.00000   0.00000   0.00000   0.00000
  31  H 1   s       -0.02117  -0.09777  -0.03031   0.04171   0.16193   0.04290
  32  H 2   s       -0.00957  -0.08563   0.05368  -0.12378  -0.05812  -0.05578
  33  H 3   s       -0.02117   0.09777   0.03031   0.04171   0.16193  -0.04290
  34  H 4   s       -0.00957   0.08563  -0.05368  -0.12378  -0.05812   0.05578
  35  C 7   s       -0.12032  -0.00298   0.05575  -0.05468   0.01477  -0.10004
  36  C 7   s        0.31625   0.00952  -0.14670   0.16587  -0.04710   0.30680
  37  C 7   px      -0.05891   0.01792   0.12076   0.09931  -0.09388   0.03196
  38  C 7   py       0.05482  -0.02162  -0.04388  -0.08953  -0.02371  -0.12327
  39  C 7   pz       0.00000   0.00000   0.00000   0.00000   0.00000   0.00000
  40  C 8   s       -0.12080   0.01257   0.10772   0.07005  -0.05148   0.08049
  41  C 8   s        0.31592  -0.03252  -0.29063  -0.20197   0.15331  -0.24788
  42  C 8   px       0.05371  -0.00583  -0.01637   0.03017  -0.05877   0.08387
  43  C 8   py      -0.05407  -0.00304   0.03882  -0.04719  -0.00408  -0.13531
  44  C 8   pz       0.00000   0.00000   0.00000   0.00000   0.00000   0.00000
  45  H 5   s        0.07540   0.01135  -0.03912   0.09164   0.01291   0.17958
  46  H 6   s        0.07462  -0.00740  -0.08564  -0.08098   0.08538  -0.12519
  47  H 7   s        0.07578  -0.01480  -0.07233  -0.09960   0.03891  -0.16550
  48  C 9   s       -0.12032   0.00298  -0.05575  -0.05468   0.01477   0.10004
  49  C 9   s        0.31625  -0.00952   0.14670   0.16587  -0.04710  -0.30680
  50  C 9   px       0.05891   0.01792   0.12076  -0.09931   0.09388   0.03196
  51  C 9   py      -0.05482  -0.02162  -0.04388   0.08953   0.02371  -0.12327
  52  C 9   pz       0.00000   0.00000   0.00000   0.00000   0.00000   0.00000
  53  C 10  s       -0.12080  -0.01257  -0.10772   0.07005  -0.05148  -0.08049
  54  C 10  s        0.31592   0.03252   0.29063  -0.20197   0.15331   0.24788
  55  C 10  px      -0.05371  -0.00583  -0.01637  -0.03017   0.05877   0.08387
  56  C 10  py       0.05407  -0.00304   0.03882   0.04719   0.00408  -0.13531
  57  C 10  pz       0.00000   0.00000   0.00000   0.00000   0.00000   0.00000
  58  H 8   s        0.07540  -0.01135   0.03912   0.09164   0.01291  -0.17958
  59  H 9   s        0.07462   0.00740   0.08564  -0.08098   0.08538   0.12519
  60  H 10  s        0.07578   0.01480   0.07233  -0.09960   0.03891   0.16550
                        19        20        21        22        23        24
 eigenvalues:         -0.512    -0.462    -0.439    -0.410    -0.400    -0.397
   1  C 1   s       -0.05131   0.03667   0.01117   0.07481   0.00639  -0.01893
   2  C 1   s        0.14824  -0.12085  -0.04070  -0.25186  -0.02551   0.06216
   3  C 1   px      -0.14363  -0.12575  -0.13084   0.06857  -0.10339   0.01178
   4  C 1   py       0.01734  -0.06361   0.14529  -0.00007  -0.24720   0.01109
   5  C 1   pz       0.00000   0.00000   0.00000   0.00000   0.00000   0.00000
   6  C 2   s        0.00934   0.01338  -0.01384  -0.04424  -0.01477   0.02537
   7  C 2   s       -0.03493  -0.05251   0.04567   0.15433   0.05213  -0.08474
   8  C 2   px       0.09025  -0.15602   0.20134   0.00204  -0.09254   0.06471
   9  C 2   py      -0.18368  -0.13081  -0.00793   0.22217   0.14878   0.00068
  10  C 2   pz       0.00000   0.00000   0.00000   0.00000   0.00000   0.00000
  11  C 3   s        0.05285  -0.02260   0.03530   0.04093   0.03561  -0.01998
  12  C 3   s       -0.16832   0.06300  -0.11508  -0.14389  -0.11624   0.07310
  13  C 3   px       0.04594   0.15020  -0.13001   0.13880   0.05340  -0.12113
  14  C 3   py      -0.19567  -0.06991  -0.09960  -0.19680   0.21751   0.02812
  15  C 3   pz       0.00000   0.00000   0.00000   0.00000   0.00000   0.00000
  16  C 4   s       -0.05131   0.03667  -0.01117  -0.07481  -0.00639  -0.01893
  17  C 4   s        0.14824  -0.12085   0.04070   0.25186   0.02551   0.06216
  18  C 4   px       0.14363   0.12575  -0.13084   0.06857  -0.10339  -0.01178
  19  C 4   py      -0.01734   0.06361   0.14529  -0.00007  -0.24720  -0.01109
  20  C 4   pz       0.00000   0.00000   0.00000   0.00000   0.00000   0.00000
  21  C 5   s        0.00934   0.01338   0.01384   0.04424   0.01477   0.02537
  22  C 5   s       -0.03493  -0.05251  -0.04567  -0.15433  -0.05213  -0.08474
  23  C 5   px      -0.09025   0.15602   0.20134   0.00204  -0.09254  -0.06471
  24  C 5   py       0.18368   0.13081  -0.00793   0.22217   0.14878  -0.00068
  25  C 5   pz       0.00000   0.00000   0.00000   0.00000   0.00000   0.00000
  26  C 6   s        0.05285  -0.02260  -0.03530  -0.04093  -0.03561  -0.01998
  27  C 6   s       -0.16832   0.06300   0.11508   0.14389   0.11624   0.07310
  28  C 6   px      -0.04594  -0.15020  -0.13001   0.13880   0.05340   0.12113
  29  C 6   py       0.19567   0.06991  -0.09960  -0.19680   0.21751  -0.02812
  30  C 6   pz       0.00000   0.00000   0.00000   0.00000   0.00000   0.00000
  31  H 1   s       -0.10294  -0.13198   0.06791   0.24227   0.11655  -0.01645
  32  H 2   s       -0.16511  -0.09118  -0.03192  -0.26529   0.07461   0.10633
  33  H 3   s       -0.10294  -0.13198  -0.06791  -0.24227  -0.11655  -0.01645
  34  H 4   s       -0.16511  -0.09118   0.03192   0.26529  -0.07461   0.10633
  35  C 7   s        0.05921  -0.04251  -0.01902   0.01121  -0.00247   0.02333
  36  C 7   s       -0.18102   0.13249   0.05591  -0.03177   0.01850  -0.06117
  37  C 7   px      -0.00806  -0.18280   0.07517   0.04706   0.19492   0.07709
  38  C 7   py       0.06832  -0.10505   0.21753   0.01646  -0.03486  -0.28201
  39  C 7   pz       0.00000   0.00000   0.00000   0.00000   0.00000   0.00000
  40  C 8   s       -0.05503   0.01434   0.01226  -0.01312   0.00074   0.00731
  41  C 8   s        0.17316  -0.05463  -0.04867   0.04735   0.00932  -0.00594
  42  C 8   px      -0.08200  -0.02298   0.23639  -0.09951   0.04530  -0.32751
  43  C 8   py       0.07738  -0.20669   0.04161  -0.01081   0.23939   0.06748
  44  C 8   pz       0.00000   0.00000   0.00000   0.00000   0.00000   0.00000
  45  H 5   s       -0.11426   0.14836  -0.14448  -0.05254  -0.00262   0.17588
  46  H 6   s        0.10577   0.02016  -0.19269   0.09949  -0.07263   0.24437
  47  H 7   s        0.08930  -0.17402   0.04658  -0.03777   0.20356   0.00549
  48  C 9   s        0.05921  -0.04251   0.01902  -0.01121   0.00247   0.02333
  49  C 9   s       -0.18102   0.13249  -0.05591   0.03177  -0.01850  -0.06117
  50  C 9   px       0.00806   0.18280   0.07517   0.04706   0.19492  -0.07709
  51  C 9   py      -0.06832   0.10505   0.21753   0.01646  -0.03486   0.28201
  52  C 9   pz       0.00000   0.00000   0.00000   0.00000   0.00000   0.00000
  53  C 10  s       -0.05503   0.01434  -0.01226   0.01312  -0.00074   0.00731
  54  C 10  s        0.17316  -0.05463   0.04867  -0.04735  -0.00932  -0.00594
  55  C 10  px       0.08200   0.02298   0.23639  -0.09951   0.04530   0.32751
  56  C 10  py      -0.07738   0.20669   0.04161  -0.01081   0.23939  -0.06748
  57  C 10  pz       0.00000   0.00000   0.00000   0.00000   0.00000   0.00000
  58  H 8   s       -0.11426   0.14836   0.14448   0.05254   0.00262   0.17588
  59  H 9   s        0.10577   0.02016   0.19269  -0.09949   0.07263   0.24437
  60  H 10  s        0.08930  -0.17402  -0.04658   0.03777  -0.20356   0.00549
                        25        26        27        28        29        30
 eigenvalues:         -0.376    -0.358    -0.349    -0.330    -0.305    -0.295
   1  C 1   s       -0.00175  -0.00462   0.02696   0.00000  -0.01199   0.00335
   2  C 1   s        0.00900   0.01781  -0.09523   0.00000   0.05569  -0.00809
   3  C 1   px       0.12544   0.13134  -0.01910   0.00000   0.27750   0.13656
   4  C 1   py      -0.04085  -0.16595   0.09188   0.00000   0.07879  -0.28671
   5  C 1   pz       0.00000   0.00000   0.00000   0.33607   0.00000   0.00000
   6  C 2   s        0.03384   0.01398   0.00080   0.00000   0.01099   0.00770
   7  C 2   s       -0.10757  -0.05021  -0.01226   0.00000  -0.03627  -0.01889
   8  C 2   px       0.13917  -0.23825  -0.12335   0.00000  -0.00052  -0.17363
   9  C 2   py       0.28699   0.04328  -0.13961   0.00000   0.06825   0.24264
  10  C 2   pz       0.00000   0.00000   0.00000   0.30140   0.00000   0.00000
  11  C 3   s        0.00767  -0.00903  -0.00056   0.00000  -0.01521  -0.00887
  12  C 3   s       -0.01993   0.02870   0.00006   0.00000   0.05052   0.01957
  13  C 3   px      -0.23700   0.20041   0.14526   0.00000   0.04061   0.12444
  14  C 3   py       0.14753   0.09212   0.06521   0.00000  -0.13829  -0.24645
  15  C 3   pz       0.00000   0.00000   0.00000   0.30134   0.00000   0.00000
  16  C 4   s        0.00175   0.00462   0.02696   0.00000   0.01199   0.00335
  17  C 4   s       -0.00900  -0.01781  -0.09523   0.00000  -0.05569  -0.00809
  18  C 4   px       0.12544   0.13134   0.01910   0.00000   0.27750  -0.13656
  19  C 4   py      -0.04085  -0.16595  -0.09188   0.00000   0.07879   0.28671
  20  C 4   pz       0.00000   0.00000   0.00000   0.33607   0.00000   0.00000
  21  C 5   s       -0.03384  -0.01398   0.00080   0.00000  -0.01099   0.00770
  22  C 5   s        0.10757   0.05021  -0.01226   0.00000   0.03627  -0.01889
  23  C 5   px       0.13917  -0.23825   0.12335   0.00000  -0.00052   0.17363
  24  C 5   py       0.28699   0.04328   0.13961   0.00000   0.06825  -0.24264
  25  C 5   pz       0.00000   0.00000   0.00000   0.30140   0.00000   0.00000
  26  C 6   s       -0.00767   0.00903  -0.00056   0.00000   0.01521  -0.00887
  27  C 6   s        0.01993  -0.02870   0.00006   0.00000  -0.05052   0.01957
  28  C 6   px      -0.23700   0.20041  -0.14526   0.00000   0.04061  -0.12444
  29  C 6   py       0.14753   0.09212  -0.06521   0.00000  -0.13829   0.24645
  30  C 6   pz       0.00000   0.00000   0.00000   0.30134   0.00000   0.00000
  31  H 1   s        0.22124  -0.04681  -0.15315   0.00000   0.03072   0.19179
  32  H 2   s        0.21115  -0.04504   0.00325   0.00000  -0.06208  -0.28436
  33  H 3   s       -0.22124   0.04681  -0.15315   0.00000  -0.03072   0.19179
  34  H 4   s       -0.21115   0.04504   0.00325   0.00000   0.06208  -0.28436
  35  C 7   s       -0.00186  -0.00103  -0.01874   0.00000   0.00387  -0.00707
  36  C 7   s       -0.00070  -0.01630   0.07616   0.00000  -0.01781   0.03612
  37  C 7   px      -0.13569  -0.15059   0.06887   0.00000  -0.21073   0.10895
  38  C 7   py       0.00403   0.24021  -0.17575   0.00000  -0.17033  -0.05891
  39  C 7   pz       0.00000   0.00000   0.00000   0.15677   0.00000   0.00000
  40  C 8   s        0.00476  -0.02152   0.00823   0.00000  -0.00274   0.00635
  41  C 8   s       -0.02448   0.05710  -0.01932   0.00000   0.00669  -0.01551
  42  C 8   px       0.00188   0.20831   0.11393   0.00000   0.18437  -0.05574
  43  C 8   py      -0.14711  -0.16214   0.28708   0.00000   0.16144   0.11735
  44  C 8   pz       0.00000   0.00000   0.00000   0.08650   0.00000   0.00000
  45  H 5   s        0.01162  -0.18420   0.18185   0.00000   0.22617   0.06913
  46  H 6   s        0.01287  -0.12513  -0.17404   0.00000  -0.23177   0.02506
  47  H 7   s       -0.10356  -0.08411   0.27477   0.00000   0.22138   0.05203
  48  C 9   s        0.00186   0.00103  -0.01874   0.00000  -0.00387  -0.00707
  49  C 9   s        0.00070   0.01630   0.07616   0.00000   0.01781   0.03612
  50  C 9   px      -0.13569  -0.15059  -0.06887   0.00000  -0.21073  -0.10895
  51  C 9   py       0.00403   0.24021   0.17575   0.00000  -0.17033   0.05891
  52  C 9   pz       0.00000   0.00000   0.00000   0.15677   0.00000   0.00000
  53  C 10  s       -0.00476   0.02152   0.00823   0.00000   0.00274   0.00635
  54  C 10  s        0.02448  -0.05710  -0.01932   0.00000  -0.00669  -0.01551
  55  C 10  px       0.00188   0.20831  -0.11393   0.00000   0.18437   0.05574
  56  C 10  py      -0.14711  -0.16214  -0.28708   0.00000   0.16144  -0.11735
  57  C 10  pz       0.00000   0.00000   0.00000   0.08650   0.00000   0.00000
  58  H 8   s       -0.01162   0.18420   0.18185   0.00000  -0.22617   0.06913
  59  H 9   s       -0.01287   0.12513  -0.17404   0.00000   0.23177   0.02506
  60  H 10  s        0.10356   0.08411   0.27477   0.00000  -0.22138   0.05203
                        31        32        33        34        35        36
 eigenvalues:         -0.281    -0.263    -0.216    -0.198    -0.160     0.050
   1  C 1   s       -0.00910   0.00000   0.00000   0.00000   0.00000   0.00000
   2  C 1   s        0.05273   0.00000   0.00000   0.00000   0.00000   0.00000
   3  C 1   px       0.25751   0.00000   0.00000   0.00000   0.00000   0.00000
   4  C 1   py       0.13571   0.00000   0.00000   0.00000   0.00000   0.00000
   5  C 1   pz       0.00000   0.34355  -0.02082  -0.01751   0.39028   0.44920
   6  C 2   s       -0.00532   0.00000   0.00000   0.00000   0.00000   0.00000
   7  C 2   s        0.01425   0.00000   0.00000   0.00000   0.00000   0.00000
   8  C 2   px      -0.22313   0.00000   0.00000   0.00000   0.00000   0.00000
   9  C 2   py      -0.07872   0.00000   0.00000   0.00000   0.00000   0.00000
  10  C 2   pz       0.00000   0.13137  -0.16425  -0.46934   0.20693  -0.22851
  11  C 3   s       -0.00192   0.00000   0.00000   0.00000   0.00000   0.00000
  12  C 3   s        0.00757   0.00000   0.00000   0.00000   0.00000   0.00000
  13  C 3   px       0.21813   0.00000   0.00000   0.00000   0.00000   0.00000
  14  C 3   py       0.16424   0.00000   0.00000   0.00000   0.00000   0.00000
  15  C 3   pz       0.00000  -0.14115  -0.15750  -0.45079  -0.24183  -0.28723
  16  C 4   s       -0.00910   0.00000   0.00000   0.00000   0.00000   0.00000
  17  C 4   s        0.05273   0.00000   0.00000   0.00000   0.00000   0.00000
  18  C 4   px      -0.25751   0.00000   0.00000   0.00000   0.00000   0.00000
  19  C 4   py      -0.13571   0.00000   0.00000   0.00000   0.00000   0.00000
  20  C 4   pz       0.00000  -0.34355  -0.02082   0.01751  -0.39028   0.44920
  21  C 5   s       -0.00532   0.00000   0.00000   0.00000   0.00000   0.00000
  22  C 5   s        0.01425   0.00000   0.00000   0.00000   0.00000   0.00000
  23  C 5   px       0.22313   0.00000   0.00000   0.00000   0.00000   0.00000
  24  C 5   py       0.07872   0.00000   0.00000   0.00000   0.00000   0.00000
  25  C 5   pz       0.00000  -0.13137  -0.16425   0.46934  -0.20693  -0.22851
  26  C 6   s       -0.00192   0.00000   0.00000   0.00000   0.00000   0.00000
  27  C 6   s        0.00757   0.00000   0.00000   0.00000   0.00000   0.00000
  28  C 6   px      -0.21813   0.00000   0.00000   0.00000   0.00000   0.00000
  29  C 6   py      -0.16424   0.00000   0.00000   0.00000   0.00000   0.00000
  30  C 6   pz       0.00000   0.14115  -0.15750   0.45079   0.24183  -0.28723
  31  H 1   s       -0.18101   0.00000   0.00000   0.00000   0.00000   0.00000
  32  H 2   s       -0.05433   0.00000   0.00000   0.00000   0.00000   0.00000
  33  H 3   s       -0.18101   0.00000   0.00000   0.00000   0.00000   0.00000
  34  H 4   s       -0.05433   0.00000   0.00000   0.00000   0.00000   0.00000
  35  C 7   s       -0.02231   0.00000   0.00000   0.00000   0.00000   0.00000
  36  C 7   s        0.09263   0.00000   0.00000   0.00000   0.00000   0.00000
  37  C 7   px       0.27000   0.00000   0.00000   0.00000   0.00000   0.00000
  38  C 7   py       0.11476   0.00000   0.00000   0.00000   0.00000   0.00000
  39  C 7   pz       0.00000  -0.37184   0.41842  -0.00045   0.23120   0.27338
  40  C 8   s        0.00366   0.00000   0.00000   0.00000   0.00000   0.00000
  41  C 8   s       -0.00635   0.00000   0.00000   0.00000   0.00000   0.00000
  42  C 8   px      -0.12880   0.00000   0.00000   0.00000   0.00000   0.00000
  43  C 8   py      -0.03662   0.00000   0.00000   0.00000   0.00000   0.00000
  44  C 8   pz       0.00000  -0.28066   0.42385  -0.01337   0.38204  -0.44192
  45  H 5   s       -0.16904   0.00000   0.00000   0.00000   0.00000   0.00000
  46  H 6   s        0.15583   0.00000   0.00000   0.00000   0.00000   0.00000
  47  H 7   s       -0.11509   0.00000   0.00000   0.00000   0.00000   0.00000
  48  C 9   s       -0.02231   0.00000   0.00000   0.00000   0.00000   0.00000
  49  C 9   s        0.09263   0.00000   0.00000   0.00000   0.00000   0.00000
  50  C 9   px      -0.27000   0.00000   0.00000   0.00000   0.00000   0.00000
  51  C 9   py      -0.11476   0.00000   0.00000   0.00000   0.00000   0.00000
  52  C 9   pz       0.00000   0.37184   0.41842   0.00045  -0.23120   0.27338
  53  C 10  s        0.00366   0.00000   0.00000   0.00000   0.00000   0.00000
  54  C 10  s       -0.00635   0.00000   0.00000   0.00000   0.00000   0.00000
  55  C 10  px       0.12880   0.00000   0.00000   0.00000   0.00000   0.00000
  56  C 10  py       0.03662   0.00000   0.00000   0.00000   0.00000   0.00000
  57  C 10  pz       0.00000   0.28066   0.42385   0.01337  -0.38204  -0.44192
  58  H 8   s       -0.16904   0.00000   0.00000   0.00000   0.00000   0.00000
  59  H 9   s        0.15583   0.00000   0.00000   0.00000   0.00000   0.00000
  60  H 10  s       -0.11509   0.00000   0.00000   0.00000   0.00000   0.00000
                        37        38        39        40        41        42
 eigenvalues:          0.091     0.116     0.181     0.280     0.319     0.330
   1  C 1   s        0.00000   0.00000   0.00000   0.00000   0.06928  -0.05464
   2  C 1   s        0.00000   0.00000   0.00000   0.00000  -0.39778   0.30994
   3  C 1   px       0.00000   0.00000   0.00000   0.00000  -0.33153   0.26902
   4  C 1   py       0.00000   0.00000   0.00000   0.00000  -0.08789   0.22412
   5  C 1   pz      -0.03630  -0.02544  -0.49366   0.54743   0.00000   0.00000
   6  C 2   s        0.00000   0.00000   0.00000   0.00000   0.03305   0.01401
   7  C 2   s        0.00000   0.00000   0.00000   0.00000  -0.20184  -0.07515
   8  C 2   px       0.00000   0.00000   0.00000   0.00000  -0.03987   0.07643
   9  C 2   py       0.00000   0.00000   0.00000   0.00000  -0.27186   0.29582
  10  C 2   pz       0.58645   0.21679   0.17639  -0.47771   0.00000   0.00000
  11  C 3   s        0.00000   0.00000   0.00000   0.00000   0.04293  -0.03061
  12  C 3   s        0.00000   0.00000   0.00000   0.00000  -0.25865   0.17986
  13  C 3   px       0.00000   0.00000   0.00000   0.00000   0.12296   0.03230
  14  C 3   py       0.00000   0.00000   0.00000   0.00000  -0.18239   0.22358
  15  C 3   pz      -0.55165  -0.20908   0.20662   0.47986   0.00000   0.00000
  16  C 4   s        0.00000   0.00000   0.00000   0.00000   0.06928   0.05464
  17  C 4   s        0.00000   0.00000   0.00000   0.00000  -0.39778  -0.30994
  18  C 4   px       0.00000   0.00000   0.00000   0.00000   0.33153   0.26902
  19  C 4   py       0.00000   0.00000   0.00000   0.00000   0.08789   0.22412
  20  C 4   pz      -0.03630   0.02544  -0.49366  -0.54743   0.00000   0.00000
  21  C 5   s        0.00000   0.00000   0.00000   0.00000   0.03305  -0.01401
  22  C 5   s        0.00000   0.00000   0.00000   0.00000  -0.20184   0.07515
  23  C 5   px       0.00000   0.00000   0.00000   0.00000   0.03987   0.07643
  24  C 5   py       0.00000   0.00000   0.00000   0.00000   0.27186   0.29582
  25  C 5   pz       0.58645  -0.21679   0.17639   0.47771   0.00000   0.00000
  26  C 6   s        0.00000   0.00000   0.00000   0.00000   0.04293   0.03061
  27  C 6   s        0.00000   0.00000   0.00000   0.00000  -0.25865  -0.17986
  28  C 6   px       0.00000   0.00000   0.00000   0.00000  -0.12296   0.03230
  29  C 6   py       0.00000   0.00000   0.00000   0.00000   0.18239   0.22358
  30  C 6   pz      -0.55165   0.20908   0.20662  -0.47986   0.00000   0.00000
  31  H 1   s        0.00000   0.00000   0.00000   0.00000   0.40986  -0.27138
  32  H 2   s        0.00000   0.00000   0.00000   0.00000   0.40669  -0.21383
  33  H 3   s        0.00000   0.00000   0.00000   0.00000   0.40986   0.27138
  34  H 4   s        0.00000   0.00000   0.00000   0.00000   0.40669   0.21383
  35  C 7   s        0.00000   0.00000   0.00000   0.00000  -0.05971  -0.01845
  36  C 7   s        0.00000   0.00000   0.00000   0.00000   0.32861   0.09700
  37  C 7   px       0.00000   0.00000   0.00000   0.00000   0.38388   0.34232
  38  C 7   py       0.00000   0.00000   0.00000   0.00000   0.19091   0.28238
  39  C 7   pz       0.00134   0.53554   0.52161   0.26096   0.00000   0.00000
  40  C 8   s        0.00000   0.00000   0.00000   0.00000   0.03831  -0.00624
  41  C 8   s        0.00000   0.00000   0.00000   0.00000  -0.21837   0.03726
  42  C 8   px       0.00000   0.00000   0.00000   0.00000   0.14628   0.20828
  43  C 8   py       0.00000   0.00000   0.00000   0.00000   0.09132   0.31421
  44  C 8   pz       0.01862  -0.53512  -0.38592  -0.14301   0.00000   0.00000
  45  H 5   s        0.00000   0.00000   0.00000   0.00000   0.07074   0.32356
  46  H 6   s        0.00000   0.00000   0.00000   0.00000   0.33785   0.29034
  47  H 7   s        0.00000   0.00000   0.00000   0.00000  -0.09932  -0.38325
  48  C 9   s        0.00000   0.00000   0.00000   0.00000  -0.05971   0.01845
  49  C 9   s        0.00000   0.00000   0.00000   0.00000   0.32861  -0.09700
  50  C 9   px       0.00000   0.00000   0.00000   0.00000  -0.38388   0.34232
  51  C 9   py       0.00000   0.00000   0.00000   0.00000  -0.19091   0.28238
  52  C 9   pz       0.00134  -0.53554   0.52161  -0.26096   0.00000   0.00000
  53  C 10  s        0.00000   0.00000   0.00000   0.00000   0.03831   0.00624
  54  C 10  s        0.00000   0.00000   0.00000   0.00000  -0.21837  -0.03726
  55  C 10  px       0.00000   0.00000   0.00000   0.00000  -0.14628   0.20828
  56  C 10  py       0.00000   0.00000   0.00000   0.00000  -0.09132   0.31421
  57  C 10  pz       0.01862   0.53512  -0.38592   0.14301   0.00000   0.00000
  58  H 8   s        0.00000   0.00000   0.00000   0.00000   0.07074  -0.32356
  59  H 9   s        0.00000   0.00000   0.00000   0.00000   0.33785  -0.29034
  60  H 10  s        0.00000   0.00000   0.00000   0.00000  -0.09932   0.38325
                        43        44        45        46        47        48
 eigenvalues:          0.365     0.370     0.413     0.416     0.422     0.446
   1  C 1   s       -0.04121   0.03424  -0.06887   0.04080  -0.03954  -0.11612
   2  C 1   s        0.22839  -0.20593   0.39979  -0.24206   0.24403   0.70848
   3  C 1   px       0.43913  -0.00934   0.06479  -0.19597  -0.14287   0.04417
   4  C 1   py      -0.07947  -0.02921  -0.10140   0.20685  -0.16094   0.04091
   5  C 1   pz       0.00000   0.00000   0.00000   0.00000   0.00000   0.00000
   6  C 2   s        0.01571  -0.03755   0.06505   0.07371   0.07210   0.09180
   7  C 2   s       -0.09484   0.23116  -0.38726  -0.45568  -0.44427  -0.57725
   8  C 2   px       0.21993   0.14350   0.06620   0.12973  -0.23776  -0.25509
   9  C 2   py      -0.14780  -0.00972  -0.11187  -0.04747  -0.37895  -0.10018
  10  C 2   pz       0.00000   0.00000   0.00000   0.00000   0.00000   0.00000
  11  C 3   s        0.01042  -0.04299  -0.09167  -0.08563  -0.02303   0.04963
  12  C 3   s       -0.06866   0.26575   0.55765   0.52650   0.13195  -0.31377
  13  C 3   px       0.34518  -0.20318  -0.09907   0.01797  -0.06077   0.25635
  14  C 3   py      -0.26293   0.15528   0.02224  -0.00156  -0.24624   0.19281
  15  C 3   pz       0.00000   0.00000   0.00000   0.00000   0.00000   0.00000
  16  C 4   s        0.04121   0.03424   0.06887   0.04080   0.03954  -0.11612
  17  C 4   s       -0.22839  -0.20593  -0.39979  -0.24206  -0.24403   0.70848
  18  C 4   px       0.43913   0.00934   0.06479   0.19597  -0.14287  -0.04417
  19  C 4   py      -0.07947   0.02921  -0.10140  -0.20685  -0.16094  -0.04091
  20  C 4   pz       0.00000   0.00000   0.00000   0.00000   0.00000   0.00000
  21  C 5   s       -0.01571  -0.03755  -0.06505   0.07371  -0.07210   0.09180
  22  C 5   s        0.09484   0.23116   0.38726  -0.45568   0.44427  -0.57725
  23  C 5   px       0.21993  -0.14350   0.06620  -0.12973  -0.23776   0.25509
  24  C 5   py      -0.14780   0.00972  -0.11187   0.04747  -0.37895   0.10018
  25  C 5   pz       0.00000   0.00000   0.00000   0.00000   0.00000   0.00000
  26  C 6   s       -0.01042  -0.04299   0.09167  -0.08563   0.02303   0.04963
  27  C 6   s        0.06866   0.26575  -0.55765   0.52650  -0.13195  -0.31377
  28  C 6   px       0.34518   0.20318  -0.09907  -0.01797  -0.06077  -0.25635
  29  C 6   py      -0.26293  -0.15528   0.02224   0.00156  -0.24624  -0.19281
  30  C 6   pz       0.00000   0.00000   0.00000   0.00000   0.00000   0.00000
  31  H 1   s        0.10451  -0.19156   0.27988   0.25298   0.66813   0.41309
  32  H 2   s        0.46192  -0.32278  -0.30248  -0.18136   0.06674   0.19483
  33  H 3   s       -0.10451  -0.19156  -0.27988   0.25298  -0.66813   0.41309
  34  H 4   s       -0.46192  -0.32278   0.30248  -0.18136  -0.06674   0.19483
  35  C 7   s       -0.09944   0.05521  -0.06005  -0.04628   0.05211   0.09864
  36  C 7   s        0.57305  -0.33382   0.37803   0.29221  -0.33068  -0.59950
  37  C 7   px       0.28049   0.14884   0.13685   0.18896   0.03155  -0.08311
  38  C 7   py      -0.04120   0.28617  -0.26129  -0.24106   0.18541   0.14205
  39  C 7   pz       0.00000   0.00000   0.00000   0.00000   0.00000   0.00000
  40  C 8   s        0.05675  -0.04357  -0.08123  -0.09799   0.00310  -0.06230
  41  C 8   s       -0.32975   0.25550   0.51610   0.61995  -0.02589   0.37696
  42  C 8   px       0.05103   0.26866  -0.21830  -0.18870   0.28864  -0.04211
  43  C 8   py      -0.04502   0.33443   0.19846   0.17933   0.09577  -0.03923
  44  C 8   pz       0.00000   0.00000   0.00000   0.00000   0.00000   0.00000
  45  H 5   s       -0.29854   0.52158  -0.38108  -0.34163   0.36907   0.39895
  46  H 6   s        0.24558   0.20215  -0.41562  -0.44052   0.29674  -0.23909
  47  H 7   s        0.14198  -0.50339  -0.33834  -0.39502  -0.16883  -0.16504
  48  C 9   s        0.09944   0.05521   0.06005  -0.04628  -0.05211   0.09864
  49  C 9   s       -0.57305  -0.33382  -0.37803   0.29221   0.33068  -0.59950
  50  C 9   px       0.28049  -0.14884   0.13685  -0.18896   0.03155   0.08311
  51  C 9   py      -0.04120  -0.28617  -0.26129   0.24106   0.18541  -0.14205
  52  C 9   pz       0.00000   0.00000   0.00000   0.00000   0.00000   0.00000
  53  C 10  s       -0.05675  -0.04357   0.08123  -0.09799  -0.00310  -0.06230
  54  C 10  s        0.32975   0.25550  -0.51610   0.61995   0.02589   0.37696
  55  C 10  px       0.05103  -0.26866  -0.21830   0.18870   0.28864   0.04211
  56  C 10  py      -0.04502  -0.33443   0.19846  -0.17933   0.09577   0.03923
  57  C 10  pz       0.00000   0.00000   0.00000   0.00000   0.00000   0.00000
  58  H 8   s        0.29854   0.52158   0.38108  -0.34163  -0.36907   0.39895
  59  H 9   s       -0.24558   0.20215   0.41562  -0.44052  -0.29674  -0.23909
  60  H 10  s       -0.14198  -0.50339   0.33834  -0.39502   0.16883  -0.16504
                        49        50        51        52        53        54
 eigenvalues:          0.469     0.496     0.539     0.571     0.587     0.610
   1  C 1   s       -0.05788  -0.01572  -0.09776   0.00225  -0.00261   0.07447
   2  C 1   s        0.35292   0.09760   0.66014   0.00028   0.01633  -0.52227
   3  C 1   px      -0.13478   0.00998  -0.56446   0.08656  -0.06555   0.00099
   4  C 1   py       0.13611   0.36248  -0.13341  -0.53542   0.20347  -0.31229
   5  C 1   pz       0.00000   0.00000   0.00000   0.00000   0.00000   0.00000
   6  C 2   s        0.05311   0.10991   0.03000  -0.10117   0.02329   0.02125
   7  C 2   s       -0.32640  -0.70497  -0.20033   0.68973  -0.16618  -0.14392
   8  C 2   px      -0.18089   0.17374  -0.21296   0.01368   0.26741   0.76841
   9  C 2   py       0.13705   0.01609   0.43358   0.00248   0.60216  -0.23534
  10  C 2   pz       0.00000   0.00000   0.00000   0.00000   0.00000   0.00000
  11  C 3   s       -0.06188  -0.11416   0.05372  -0.01422  -0.01777  -0.08450
  12  C 3   s        0.38122   0.73453  -0.35456   0.11271   0.13071   0.59093
  13  C 3   px      -0.19831   0.16979  -0.02022  -0.47965   0.49528   0.34624
  14  C 3   py       0.16085   0.10407   0.41415  -0.29353  -0.42732   0.36625
  15  C 3   pz       0.00000   0.00000   0.00000   0.00000   0.00000   0.00000
  16  C 4   s        0.05788  -0.01572  -0.09776  -0.00225  -0.00261  -0.07447
  17  C 4   s       -0.35292   0.09760   0.66014  -0.00028   0.01633   0.52227
  18  C 4   px      -0.13478  -0.00998   0.56446   0.08656   0.06555   0.00099
  19  C 4   py       0.13611  -0.36248   0.13341  -0.53542  -0.20347  -0.31229
  20  C 4   pz       0.00000   0.00000   0.00000   0.00000   0.00000   0.00000
  21  C 5   s       -0.05311   0.10991   0.03000   0.10117   0.02329  -0.02125
  22  C 5   s        0.32640  -0.70497  -0.20033  -0.68973  -0.16618   0.14392
  23  C 5   px      -0.18089  -0.17374   0.21296   0.01368  -0.26741   0.76841
  24  C 5   py       0.13705  -0.01609  -0.43358   0.00248  -0.60216  -0.23534
  25  C 5   pz       0.00000   0.00000   0.00000   0.00000   0.00000   0.00000
  26  C 6   s        0.06188  -0.11416   0.05372   0.01422  -0.01777   0.08450
  27  C 6   s       -0.38122   0.73453  -0.35456  -0.11271   0.13071  -0.59093
  28  C 6   px      -0.19831  -0.16979   0.02022  -0.47965  -0.49528   0.34624
  29  C 6   py       0.16085  -0.10407  -0.41415  -0.29353   0.42732   0.36625
  30  C 6   pz       0.00000   0.00000   0.00000   0.00000   0.00000   0.00000
  31  H 1   s        0.08502   0.26736  -0.17799  -0.28231  -0.45169   0.04851
  32  H 2   s       -0.50269  -0.37117  -0.08552  -0.08836   0.46553  -0.27668
  33  H 3   s       -0.08502   0.26736  -0.17799   0.28231  -0.45168  -0.04851
  34  H 4   s        0.50269  -0.37117  -0.08552   0.08836   0.46553   0.27668
  35  C 7   s       -0.06431   0.01574  -0.05673   0.00866   0.04006   0.04731
  36  C 7   s        0.39326  -0.11989   0.37362  -0.07189  -0.28222  -0.32438
  37  C 7   px      -0.15189  -0.10778  -0.08361  -0.03331   0.18474  -0.07086
  38  C 7   py      -0.05194  -0.00681  -0.14452  -0.33235  -0.08077  -0.04073
  39  C 7   pz       0.00000   0.00000   0.00000   0.00000   0.00000   0.00000
  40  C 8   s        0.11460   0.06598   0.02160  -0.01275  -0.04133   0.00234
  41  C 8   s       -0.72410  -0.42603  -0.13950   0.10001   0.28364  -0.01853
  42  C 8   px       0.08316   0.33595   0.16258   0.46190   0.19605   0.20066
  43  C 8   py      -0.09643  -0.13221   0.29683   0.10857  -0.10651  -0.11825
  44  C 8   pz       0.00000   0.00000   0.00000   0.00000   0.00000   0.00000
  45  H 5   s       -0.27509  -0.00952  -0.26784  -0.25505   0.09691   0.09936
  46  H 6   s        0.39136   0.44649   0.24728   0.33994   0.02112   0.13221
  47  H 7   s        0.48777   0.30371  -0.18351  -0.20816  -0.12817   0.11314
  48  C 9   s        0.06431   0.01574  -0.05673  -0.00866   0.04006  -0.04731
  49  C 9   s       -0.39326  -0.11989   0.37362   0.07189  -0.28222   0.32438
  50  C 9   px      -0.15189   0.10778   0.08361  -0.03331  -0.18474  -0.07086
  51  C 9   py      -0.05194   0.00681   0.14452  -0.33235   0.08077  -0.04073
  52  C 9   pz       0.00000   0.00000   0.00000   0.00000   0.00000   0.00000
  53  C 10  s       -0.11460   0.06598   0.02160   0.01275  -0.04133  -0.00234
  54  C 10  s        0.72410  -0.42603  -0.13950  -0.10001   0.28364   0.01853
  55  C 10  px       0.08316  -0.33595  -0.16258   0.46190  -0.19605   0.20066
  56  C 10  py      -0.09643   0.13221  -0.29683   0.10857   0.10651  -0.11825
  57  C 10  pz       0.00000   0.00000   0.00000   0.00000   0.00000   0.00000
  58  H 8   s        0.27509  -0.00952  -0.26784   0.25505   0.09691  -0.09936
  59  H 9   s       -0.39136   0.44649   0.24728  -0.33994   0.02112  -0.13221
  60  H 10  s       -0.48777   0.30371  -0.18351   0.20816  -0.12817  -0.11314
                        55        56        57        58        59        60
 eigenvalues:          0.627     0.646     0.693     0.743     0.806     0.816
   1  C 1   s        0.07380   0.00927   0.00299   0.00468   0.00015   0.06177
   2  C 1   s       -0.49908  -0.03961  -0.01277  -0.03267  -0.00267  -0.47333
   3  C 1   px      -0.08380  -0.45216  -0.21082   0.12537  -0.12724   0.64077
   4  C 1   py       0.31676  -0.13185   0.20417  -0.46089   0.72668   0.14264
   5  C 1   pz       0.00000   0.00000   0.00000   0.00000   0.00000   0.00000
   6  C 2   s        0.01051   0.01905  -0.01914  -0.04092   0.01224  -0.06155
   7  C 2   s       -0.08861  -0.13459   0.13894   0.30678  -0.09362   0.45723
   8  C 2   px      -0.04275   0.19551  -0.47799   0.13420  -0.53527  -0.20584
   9  C 2   py      -0.16267   0.21331   0.04627  -0.12454   0.26098  -0.61933
  10  C 2   pz       0.00000   0.00000   0.00000   0.00000   0.00000   0.00000
  11  C 3   s        0.05866  -0.02318   0.01908  -0.02566  -0.01298   0.06116
  12  C 3   s       -0.40094   0.15557  -0.13811   0.19489   0.09783  -0.45545
  13  C 3   px       0.19370   0.06345  -0.48180  -0.18444  -0.38675  -0.43596
  14  C 3   py       0.28131   0.29493  -0.07935  -0.13775  -0.47163   0.50724
  15  C 3   pz       0.00000   0.00000   0.00000   0.00000   0.00000   0.00000
  16  C 4   s       -0.07380   0.00927   0.00299  -0.00468   0.00015  -0.06177
  17  C 4   s        0.49908  -0.03961  -0.01277   0.03267  -0.00267   0.47333
  18  C 4   px      -0.08380   0.45216   0.21082   0.12537   0.12724   0.64077
  19  C 4   py       0.31676   0.13185  -0.20417  -0.46089  -0.72668   0.14264
  20  C 4   pz       0.00000   0.00000   0.00000   0.00000   0.00000   0.00000
  21  C 5   s       -0.01051   0.01905  -0.01914   0.04092   0.01224   0.06155
  22  C 5   s        0.08861  -0.13459   0.13894  -0.30678  -0.09362  -0.45723
  23  C 5   px      -0.04275  -0.19551   0.47799   0.13420   0.53527  -0.20584
  24  C 5   py      -0.16267  -0.21331  -0.04627  -0.12454  -0.26098  -0.61933
  25  C 5   pz       0.00000   0.00000   0.00000   0.00000   0.00000   0.00000
  26  C 6   s       -0.05866  -0.02318   0.01908   0.02566  -0.01298  -0.06116
  27  C 6   s        0.40094   0.15557  -0.13811  -0.19489   0.09783   0.45545
  28  C 6   px       0.19370  -0.06345   0.48180  -0.18444   0.38675  -0.43596
  29  C 6   py       0.28131  -0.29493   0.07935  -0.13775   0.47163   0.50724
  30  C 6   pz       0.00000   0.00000   0.00000   0.00000   0.00000   0.00000
  31  H 1   s        0.12040  -0.15221   0.01760  -0.05054  -0.01852   0.25997
  32  H 2   s        0.15023  -0.23643  -0.16345  -0.05863   0.03858  -0.28453
  33  H 3   s       -0.12040  -0.15221   0.01760   0.05054  -0.01852  -0.25997
  34  H 4   s       -0.15023  -0.23643  -0.16345   0.05863   0.03858   0.28453
  35  C 7   s       -0.04130  -0.02011   0.06167  -0.06516  -0.03178  -0.01288
  36  C 7   s        0.31555   0.12418  -0.47960   0.50754   0.25718   0.07822
  37  C 7   px      -0.51492   0.36759   0.52633  -0.41599  -0.25277   0.25176
  38  C 7   py      -0.20399   0.46197  -0.37414   0.66232   0.45116   0.03532
  39  C 7   pz       0.00000   0.00000   0.00000   0.00000   0.00000   0.00000
  40  C 8   s        0.02211   0.01988  -0.05915   0.07168   0.04018  -0.00143
  41  C 8   s       -0.16277  -0.14343   0.45415  -0.55972  -0.32538   0.02020
  42  C 8   px       0.14554  -0.44894   0.38173  -0.54192  -0.31240  -0.03035
  43  C 8   py       0.59824  -0.34973  -0.54256   0.43717   0.26392  -0.15884
  44  C 8   pz       0.00000   0.00000   0.00000   0.00000   0.00000   0.00000
  45  H 5   s       -0.33746   0.34284   0.00108   0.19268   0.16283   0.04029
  46  H 6   s        0.26397  -0.32421   0.02379  -0.11012  -0.05912  -0.04527
  47  H 7   s       -0.41292   0.42009   0.16128  -0.00960  -0.02860   0.13144
  48  C 9   s        0.04130  -0.02011   0.06167   0.06516  -0.03178   0.01288
  49  C 9   s       -0.31555   0.12418  -0.47960  -0.50754   0.25718  -0.07822
  50  C 9   px      -0.51492  -0.36759  -0.52633  -0.41599   0.25277   0.25176
  51  C 9   py      -0.20399  -0.46197   0.37414   0.66232  -0.45116   0.03532
  52  C 9   pz       0.00000   0.00000   0.00000   0.00000   0.00000   0.00000
  53  C 10  s       -0.02211   0.01988  -0.05915  -0.07168   0.04018   0.00143
  54  C 10  s        0.16277  -0.14343   0.45415   0.55972  -0.32538  -0.02020
  55  C 10  px       0.14554   0.44894  -0.38173  -0.54192   0.31240  -0.03035
  56  C 10  py       0.59824   0.34973   0.54256   0.43717  -0.26392  -0.15884
  57  C 10  pz       0.00000   0.00000   0.00000   0.00000   0.00000   0.00000
  58  H 8   s        0.33746   0.34284   0.00108  -0.19268   0.16283  -0.04029
  59  H 9   s       -0.26397  -0.32421   0.02379   0.11012  -0.05912   0.04527
  60  H 10  s        0.41292   0.42009   0.16128   0.00960  -0.02860  -0.13144
 
          Ground-State Mulliken Net Atomic Charges

     Atom                 Charge (a.u.)
  ----------------------------------------
      1 C                    -0.004104
      2 C                    -0.079244
      3 C                    -0.077213
      4 C                    -0.004104
      5 C                    -0.079244
      6 C                    -0.077213
      7 H                     0.078761
      8 H                     0.079722
      9 H                     0.078761
     10 H                     0.079722
     11 C                    -0.075269
     12 C                    -0.156380
     13 H                     0.078811
     14 H                     0.078363
     15 H                     0.076553
     16 C                    -0.075269
     17 C                    -0.156380
     18 H                     0.078811
     19 H                     0.078363
     20 H                     0.076553
  ----------------------------------------
  Sum of atomic charges =     0.000000

 -----------------------------------------------------------------
                    Cartesian Multipole Moments
 -----------------------------------------------------------------
    Charge (ESU x 10^10)
                 0.0000
    Dipole Moment (Debye)
         X       0.0000      Y       0.0000      Z       0.0000
       Tot       0.0000
    Quadrupole Moments (Debye-Ang)
        XX     -50.9644     XY      -0.1107     YY     -50.1432
        XZ       0.0000     YZ       0.0000     ZZ     -58.5742
    Octopole Moments (Debye-Ang^2)
       XXX       0.0000    XXY       0.0000    XYY       0.0000
       YYY       0.0000    XXZ       0.0000    XYZ       0.0000
       YYZ       0.0000    XZZ       0.0000    YZZ       0.0000
       ZZZ       0.0000
    Hexadecapole Moments (Debye-Ang^3)
      XXXX   -1811.1616   XXXY       0.4958   XXYY    -358.4243
      XYYY       3.4692   YYYY    -329.5792   XXXZ       0.0000
      XXYZ       0.0000   XYYZ       0.0000   YYYZ       0.0000
      XXZZ    -356.7119   XYZZ      -0.0670   YYZZ     -72.1347
      XZZZ       0.0000   YZZZ       0.0000   ZZZZ     -47.5456
 -----------------------------------------------------------------
Archival summary:
1\1\horangi.pc2.chemie.uni-siegen.de\SP\ProcedureUnspecified\STO-3G\1010\mscholz\TueOct2511:11:422016TueOct2511:11:422016\0\\#,ProcedureUnspecified,STO-3G,\\0,1\C\C,1,1.3949\H,2,1.09968,1,119.988\C,2,1.39471,1,119.999,3,180,0\H,4,1.09966,2,120.011,1,180,0\C,4,1.39516,2,120.009,1,0,0\C,6,1.3949,4,119.992,2,0,0\H,7,1.09968,6,119.988,4,180,0\C,7,1.39471,6,119.999,4,0,0\H,9,1.09966,7,120.011,6,-180,0\C,1,1.54016,2,120.005,3,0,0\H,11,1.09826,1,114.585,2,180,0\C,11,1.32592,1,122.697,2,0,0\H,13,1.09826,11,122.718,1,0,0\H,13,1.09827,11,122.716,1,-180,0\C,6,1.54016,4,120.002,2,180,0\H,16,1.09826,6,114.585,4,0,0\C,16,1.32592,6,122.697,4,180,0\H,18,1.09826,16,122.718,6,0,0\H,18,1.09827,16,122.716,6,180,0\\\@

 Total job time:  63.95s(wall), 61.12s(cpu) 
 Tue Oct 25 11:11:42 2016

======= MOLDEN-FORMATTED INPUT FILE FOLLOWS =======
[Molden Format]
[Atoms] (Angs)
  C      1    6      1.36681328      0.27876940     -0.00000000
  C      2    6      0.44164871      1.32305947     -0.00000000
  C      3    6     -0.92491848      1.04428421     -0.00000000
  C      4    6     -1.36681328     -0.27876940      0.00000000
  C      5    6     -0.44164871     -1.32305947      0.00000000
  C      6    6      0.92491848     -1.04428421      0.00000000
  H      7    1      0.79022161      2.36600642     -0.00000000
  H      8    1     -1.65420282      1.86735212     -0.00000000
  H      9    1     -0.79022161     -2.36600642      0.00000000
  H     10    1      1.65420282     -1.86735212      0.00000000
  C     11    6     -2.87586071     -0.58678089      0.00000000
  C     12    6     -3.80078811      0.36325183     -0.00000000
  H     13    1     -3.12383414     -1.65668319      0.00000000
  H     14    1     -4.87694183      0.14397476     -0.00000000
  H     15    1     -3.55281468      1.43315415     -0.00000000
  C     16    6      2.87586071      0.58678089     -0.00000000
  C     17    6      3.80078811     -0.36325183      0.00000000
  H     18    1      3.12383414      1.65668319     -0.00000000
  H     19    1      4.87694183     -0.14397476      0.00000000
  H     20    1      3.55281468     -1.43315415      0.00000000
[GTO]
1    0
S    3    1.000000
   7.16168370E+01    1.54328970E-01 
   1.30450960E+01    5.35328140E-01 
   3.53051220E+00    4.44634540E-01 
SP   3    1.000000
   2.94124940E+00   -9.99672300E-02   1.55916270E-01 
   6.83483100E-01    3.99512830E-01   6.07683720E-01 
   2.22289900E-01    7.00115470E-01   3.91957390E-01 

2    0
S    3    1.000000
   7.16168370E+01    1.54328970E-01 
   1.30450960E+01    5.35328140E-01 
   3.53051220E+00    4.44634540E-01 
SP   3    1.000000
   2.94124940E+00   -9.99672300E-02   1.55916270E-01 
   6.83483100E-01    3.99512830E-01   6.07683720E-01 
   2.22289900E-01    7.00115470E-01   3.91957390E-01 

3    0
S    3    1.000000
   7.16168370E+01    1.54328970E-01 
   1.30450960E+01    5.35328140E-01 
   3.53051220E+00    4.44634540E-01 
SP   3    1.000000
   2.94124940E+00   -9.99672300E-02   1.55916270E-01 
   6.83483100E-01    3.99512830E-01   6.07683720E-01 
   2.22289900E-01    7.00115470E-01   3.91957390E-01 

4    0
S    3    1.000000
   7.16168370E+01    1.54328970E-01 
   1.30450960E+01    5.35328140E-01 
   3.53051220E+00    4.44634540E-01 
SP   3    1.000000
   2.94124940E+00   -9.99672300E-02   1.55916270E-01 
   6.83483100E-01    3.99512830E-01   6.07683720E-01 
   2.22289900E-01    7.00115470E-01   3.91957390E-01 

5    0
S    3    1.000000
   7.16168370E+01    1.54328970E-01 
   1.30450960E+01    5.35328140E-01 
   3.53051220E+00    4.44634540E-01 
SP   3    1.000000
   2.94124940E+00   -9.99672300E-02   1.55916270E-01 
   6.83483100E-01    3.99512830E-01   6.07683720E-01 
   2.22289900E-01    7.00115470E-01   3.91957390E-01 

6    0
S    3    1.000000
   7.16168370E+01    1.54328970E-01 
   1.30450960E+01    5.35328140E-01 
   3.53051220E+00    4.44634540E-01 
SP   3    1.000000
   2.94124940E+00   -9.99672300E-02   1.55916270E-01 
   6.83483100E-01    3.99512830E-01   6.07683720E-01 
   2.22289900E-01    7.00115470E-01   3.91957390E-01 

7    0
S    3    1.000000
   3.42525091E+00    1.54328970E-01 
   6.23913730E-01    5.35328140E-01 
   1.68855400E-01    4.44634540E-01 

8    0
S    3    1.000000
   3.42525091E+00    1.54328970E-01 
   6.23913730E-01    5.35328140E-01 
   1.68855400E-01    4.44634540E-01 

9    0
S    3    1.000000
   3.42525091E+00    1.54328970E-01 
   6.23913730E-01    5.35328140E-01 
   1.68855400E-01    4.44634540E-01 

10    0
S    3    1.000000
   3.42525091E+00    1.54328970E-01 
   6.23913730E-01    5.35328140E-01 
   1.68855400E-01    4.44634540E-01 

11    0
S    3    1.000000
   7.16168370E+01    1.54328970E-01 
   1.30450960E+01    5.35328140E-01 
   3.53051220E+00    4.44634540E-01 
SP   3    1.000000
   2.94124940E+00   -9.99672300E-02   1.55916270E-01 
   6.83483100E-01    3.99512830E-01   6.07683720E-01 
   2.22289900E-01    7.00115470E-01   3.91957390E-01 

12    0
S    3    1.000000
   7.16168370E+01    1.54328970E-01 
   1.30450960E+01    5.35328140E-01 
   3.53051220E+00    4.44634540E-01 
SP   3    1.000000
   2.94124940E+00   -9.99672300E-02   1.55916270E-01 
   6.83483100E-01    3.99512830E-01   6.07683720E-01 
   2.22289900E-01    7.00115470E-01   3.91957390E-01 

13    0
S    3    1.000000
   3.42525091E+00    1.54328970E-01 
   6.23913730E-01    5.35328140E-01 
   1.68855400E-01    4.44634540E-01 

14    0
S    3    1.000000
   3.42525091E+00    1.54328970E-01 
   6.23913730E-01    5.35328140E-01 
   1.68855400E-01    4.44634540E-01 

15    0
S    3    1.000000
   3.42525091E+00    1.54328970E-01 
   6.23913730E-01    5.35328140E-01 
[...]
     2    9.759662839129e-02
     3    9.975699658813e-03
     4    3.624820155505e-01
     5    8.890499954865e-12
     6    1.099109728685e-01
     7   -7.049704688726e-01
     8    1.737372552569e-01
     9    1.608598900379e-02
    10    7.969646893260e-11
    11   -1.141646722671e-01
    12    7.345322019462e-01
    13    1.697939542198e-01
    14    1.040702210078e-01
    15    1.702971765191e-10
    16   -1.571993437018e-02
    17    9.759663297405e-02
    18   -9.975699827135e-03
    19   -3.624820153977e-01
    20   -5.401638848224e-11
    21    1.099109729856e-01
    22   -7.049704696240e-01
    23   -1.737372504370e-01
    24   -1.608598866327e-02
    25    1.477026911982e-10
    26   -1.141646722463e-01
    27    7.345322013340e-01
    28   -1.697939514280e-01
    29   -1.040702181425e-01
    30    1.024496624708e-10
    31    2.673596667116e-01
    32   -3.711720024058e-01
    33    2.673596694970e-01
    34   -3.711720022800e-01
    35    1.573925535441e-02
    36   -1.198868379349e-01
    37   -1.077823023760e-01
    38   -6.811889821495e-03
    39   -1.804829288576e-10
    40    6.598336234299e-02
    41   -4.260309873497e-01
    42    3.359499684228e-01
    43   -1.322084126898e-01
    44    3.370664288359e-10
    45   -9.518120971298e-03
    46    4.464855165562e-01
    47    3.037057741380e-01
    48    1.573925489725e-02
    49   -1.198868351573e-01
    50    1.077823030574e-01
    51    6.811888237343e-03
    52   -1.458133867728e-10
    53    6.598336376242e-02
    54   -4.260309963632e-01
    55   -3.359499716828e-01
    56    1.322084129241e-01
    57    2.278234140526e-10
    58   -9.518121049328e-03
    59    4.464855242721e-01
    60    3.037057776853e-01
Sym=X
Ene= 0.538766
Spin=Alpha
Occup=0
     1   -9.776108250670e-02
     2    6.601374816568e-01
     3   -5.644579730367e-01
     4   -1.334145650536e-01
     5    4.056697247552e-11
     6    3.000493312256e-02
     7   -2.003255445978e-01
     8   -2.129569780891e-01
     9    4.335818669360e-01
    10    1.079023429602e-11
    11    5.371949508501e-02
    12   -3.545588625320e-01
    13   -2.021738252697e-02
    14    4.141519975088e-01
    15   -1.269522912426e-10
    16   -9.776108233070e-02
    17    6.601374803971e-01
    18    5.644579737027e-01
    19    1.334145646604e-01
    20    7.432667514475e-11
    21    3.000493304087e-02
    22   -2.003255440589e-01
    23    2.129569778488e-01
    24   -4.335818674318e-01
    25   -4.992593674129e-11
    26    5.371949533892e-02
    27   -3.545588639125e-01
    28    2.021738187862e-02
    29   -4.141519981341e-01
    30   -7.538676429527e-11
    31   -1.779944112190e-01
    32   -8.552288151859e-02
    33   -1.779944122745e-01
    34   -8.552288058007e-02
    35   -5.672803864784e-02
    36    3.736154321598e-01
    37   -8.361460530631e-02
    38   -1.445193162168e-01
    39    5.663306378259e-12
    40    2.160079156668e-02
    41   -1.394988739860e-01
    42    1.625751246711e-01
    43    2.968296622967e-01
    44    2.607757853959e-11
    45   -2.678447844974e-01
    46    2.472820523557e-01
    47   -1.835134799946e-01
    48   -5.672803869519e-02
    49    3.736154326178e-01
    50    8.361460625910e-02
    51    1.445193167256e-01
    52   -2.895328277693e-11
    53    2.160079169594e-02
    54   -1.394988748483e-01
    55   -1.625751246285e-01
    56   -2.968296626741e-01
    57   -9.047398300482e-11
    58   -2.678447856171e-01
    59    2.472820529753e-01
    60   -1.835134797137e-01
Sym=X
Ene= 0.570548
Spin=Alpha
Occup=0
     1    2.254909184017e-03
     2    2.768556811797e-04
     3    8.655640369267e-02
     4   -5.354189771040e-01
     5    1.574680835277e-11
     6   -1.011676665135e-01
     7    6.897331543751e-01
     8    1.368179304912e-02
     9    2.475165075297e-03
    10   -1.724442143795e-10
    11   -1.422290366585e-02
    12    1.127089476826e-01
    13   -4.796495002707e-01
    14   -2.935264978709e-01
    15    3.209861218220e-11
    16   -2.254909195133e-03
    17   -2.768555205284e-04
    18    8.655640387143e-02
    19   -5.354189772483e-01
    20    5.732440079874e-11
    21    1.011676663751e-01
    22   -6.897331534935e-01
    23    1.368179808679e-02
    24    2.475171840705e-03
    25    7.301849757814e-11
    26    1.422290341620e-02
    27   -1.127089463016e-01
    28   -4.796494915930e-01
    29   -2.935265041381e-01
    30   -1.336179644179e-10
    31   -2.823055036174e-01
    32   -8.835951663283e-02
    33    2.823055097100e-01
    34    8.835950695529e-02
    35    8.660523930530e-03
    36   -7.188722723613e-02
    37   -3.330660626967e-02
    38   -3.323502383267e-01
    39   -9.645097026955e-11
    40   -1.275144021331e-02
    41    1.000137424588e-01
    42    4.618963646796e-01
    43    1.085670507101e-01
    44    1.529033459892e-10
    45   -2.550481199259e-01
    46    3.399441479332e-01
    47   -2.081609764105e-01
    48   -8.660524163004e-03
    49    7.188722881048e-02
    50   -3.330660514885e-02
    51   -3.323502393900e-01
    52   -2.884989781851e-11
    53    1.275144055154e-02
    54   -1.000137447731e-01
    55    4.618963662915e-01
    56    1.085670506708e-01
    57    6.448626351497e-11
    58    2.550481199969e-01
    59   -3.399441485734e-01
    60    2.081609785350e-01
Sym=X
Ene= 0.586754
Spin=Alpha
Occup=0
     1   -2.605129582623e-03
     2    1.632540225329e-02
     3   -6.554798465019e-02
     4    2.034694613475e-01
     5    1.978307118972e-10
     6    2.328792630048e-02
     7   -1.661752454066e-01
     8    2.674079699076e-01
     9    6.021620894791e-01
    10   -2.331684126180e-10
    11   -1.776899707646e-02
    12    1.307144799214e-01
    13    4.952756962288e-01
    14   -4.273173177513e-01
    15    2.578193124012e-10
    16   -2.605129978019e-03
    17    1.632540455224e-02
    18    6.554798578014e-02
    19   -2.034694684726e-01
    20   -9.807428600443e-11
    21    2.328792779966e-02
    22   -1.661752554432e-01
    23   -2.674079685317e-01
    24   -6.021620896172e-01
    25    1.002944203307e-10
    26   -1.776899712064e-02
    27    1.307144797517e-01
    28   -4.952757020635e-01
    29    4.273173144477e-01
    30   -9.444139110286e-11
    31   -4.516850005930e-01
    32    4.655297037039e-01
    33   -4.516849970203e-01
    34    4.655297036760e-01
    35    4.006095081253e-02
    36   -2.822155491022e-01
    37    1.847409431840e-01
    38   -8.076578534718e-02
    39    2.881716124334e-11
    40   -4.133300179367e-02
    41    2.836425367008e-01
    42    1.960501377096e-01
    43   -1.065072013379e-01
    44    4.369658167436e-11
    45    9.691047743735e-02
    46    2.111833811211e-02
    47   -1.281671446258e-01
    48    4.006095053252e-02
    49   -2.822155472206e-01
    50   -1.847409442405e-01
    51    8.076578067328e-02
    52    3.511808172599e-11
    53   -4.133300148327e-02
    54    2.836425344597e-01
    55   -1.960501310620e-01
    56    1.065072037294e-01
    57   -2.099494270204e-11
    58    9.691048060392e-02
    59    2.111833344648e-02
    60   -1.281671404650e-01
Sym=X
Ene= 0.610134
Spin=Alpha
Occup=0
     1    7.447298245954e-02
     2   -5.222681492471e-01
     3    9.907641536362e-04
     4   -3.122865496042e-01
     5    1.848066679794e-11
     6    2.124946915313e-02
     7   -1.439164312249e-01
     8    7.684149063486e-01
     9   -2.353423212535e-01
    10   -9.619068922347e-11
    11   -8.450006890857e-02
    12    5.909329637735e-01
    13    3.462376570000e-01
    14    3.662480771127e-01
    15    1.542849220628e-10
    16   -7.447298209663e-02
    17    5.222681468254e-01
    18    9.907632987229e-04
    19   -3.122865472258e-01
    20    7.154725472839e-11
    21   -2.124946981902e-02
    22    1.439164356649e-01
    23    7.684149041538e-01
    24   -2.353423211204e-01
    25   -2.681396079040e-10
    26    8.450006900451e-02
    27   -5.909329641919e-01
    28    3.462376579518e-01
    29    3.662480768878e-01
    30    4.395613991073e-12
    31    4.850798809324e-02
    32   -2.766798588567e-01
    33   -4.850799074734e-02
    34    2.766798581688e-01
    35    4.731350550588e-02
    36   -3.243768758529e-01
    37   -7.085597800714e-02
    38   -4.072574520510e-02
    39   -9.358715991223e-11
    40    2.336953769472e-03
    41   -1.853338099795e-02
    42    2.006554110718e-01
    43   -1.182451192421e-01
    44    1.004957768781e-10
    45    9.936419202572e-02
    46    1.322107644590e-01
    47    1.131416535172e-01
    48   -4.731350593929e-02
    49    3.243768789113e-01
    50   -7.085597714329e-02
    51   -4.072574532611e-02
    52    3.688398677395e-11
    53   -2.336953790542e-03
    54    1.853338102741e-02
    55    2.006554130199e-01
    56   -1.182451215171e-01
    57   -7.282450951574e-11
    58   -9.936419338142e-02
    59   -1.322107658015e-01
    60   -1.131416548970e-01
Sym=X
Ene= 0.626517
Spin=Alpha
Occup=0
     1    7.379844812504e-02
     2   -4.990794434697e-01
     3   -8.379593584300e-02
     4    3.167620987179e-01
     5   -8.072522434533e-13
     6    1.051029811997e-02
     7   -8.861452712000e-02
     8   -4.274662248987e-02
     9   -1.626660248820e-01
    10    8.159236431704e-11
    11    5.866002169827e-02
    12   -4.009407632655e-01
    13    1.937006830059e-01
    14    2.813146119305e-01
    15   -9.546189949065e-11
    16   -7.379844797133e-02
    17    4.990794430641e-01
    18   -8.379592348665e-02
    19    3.167621031324e-01
    20   -1.231333650743e-11
    21   -1.051029745095e-02
    22    8.861452258623e-02
    23   -4.274662781031e-02
    24   -1.626660295612e-01
    25   -2.165268683316e-11
    26   -5.866002226645e-02
    27    4.009407669288e-01
    28    1.937006809373e-01
    29    2.813146031620e-01
    30    1.276099748810e-10
    31    1.204036612462e-01
    32    1.502259951525e-01
    33   -1.204036640766e-01
    34   -1.502260012828e-01
    35   -4.130297405214e-02
    36    3.155544380997e-01
    37   -5.149243982302e-01
    38   -2.039881082342e-01
    39   -7.586485337237e-11
    40    2.211129937314e-02
    41   -1.627678470180e-01
    42    1.455377159152e-01
    43    5.982358059870e-01
    44    2.526773457447e-11
    45   -3.374552513367e-01
    46    2.639726020517e-01
    47   -4.129242383279e-01
    48    4.130297310503e-02
    49   -3.155544321764e-01
    50   -5.149244062296e-01
    51   -2.039881206377e-01
    52    7.190504353425e-12
    53   -2.211129861016e-02
    54    1.627678416315e-01
    55    1.455377282550e-01
    56    5.982358131866e-01
    57    2.192658324210e-10
    58    3.374552594547e-01
    59   -2.639726102823e-01
    60    4.129242484710e-01
Sym=X
Ene= 0.645741
Spin=Alpha
Occup=0
     1    9.270321098740e-03
     2   -3.960818188756e-02
     3   -4.521594384499e-01
     4   -1.318453520215e-01
     5    6.341472932541e-11
     6    1.905169896186e-02
     7   -1.345897155323e-01
     8    1.955062327624e-01
     9    2.133085214520e-01
    10   -8.935870133965e-11
    11   -2.318284705862e-02
    12    1.555696099519e-01
    13    6.344926379488e-02
    14    2.949262215439e-01
    15    6.105336088855e-11
    16    9.270322999220e-03
    17   -3.960819493610e-02
    18    4.521594397277e-01
    19    1.318453464767e-01
    20   -4.474090299678e-11
    21    1.905169901052e-02
    22   -1.345897161322e-01
    23   -1.955062317501e-01
    24   -2.133085156054e-01
    25    8.218289119506e-11
    26   -2.318284562919e-02
    27    1.555696001614e-01
    28   -6.344926734264e-02
    29   -2.949262279890e-01
    30   -9.415204663993e-12
    31   -1.522110945030e-01
    32   -2.364262985474e-01
    33   -1.522110907673e-01
    34   -2.364262945205e-01
    35   -2.010751677187e-02
    36    1.241833530997e-01
    37    3.675947151069e-01
    38    4.619663728968e-01
    39    1.177326017585e-10
    40    1.987773703276e-02
    41   -1.434308476893e-01
    42   -4.489359534080e-01
    43   -3.497258513799e-01
    44   -1.140582791840e-10
    45    3.428428674034e-01
    46   -3.242134749703e-01
    47    4.200863064548e-01
    48   -2.010751796787e-02
    49    1.241833621127e-01
    50   -3.675947010133e-01
    51   -4.619663690522e-01
    52   -4.199824063655e-11
    53    1.987773766867e-02
    54   -1.434308524338e-01
    55    4.489359504512e-01
    56    3.497258346302e-01
    57    1.746548667674e-10
    58    3.428428595390e-01
    59   -3.242134685794e-01
    60    4.200862948761e-01
Sym=X
Ene= 0.692812
Spin=Alpha
Occup=0
     1    2.991763564031e-03
     2   -1.276821992754e-02
     3   -2.108223589729e-01
     4    2.041661409754e-01
     5   -8.691439322295e-12
     6   -1.914467804475e-02
     7    1.389362369297e-01
     8   -4.779928668714e-01
     9    4.626602963100e-02
    10    7.376153940702e-11
    11    1.907815815280e-02
    12   -1.381090540464e-01
    13   -4.817988180506e-01
    14   -7.935088467024e-02
    15   -1.250617033842e-10
    16    2.991763098859e-03
    17   -1.276821664599e-02
    18    2.108223592600e-01
    19   -2.041661390248e-01
    20    9.624236128305e-11
    21   -1.914467836649e-02
    22    1.389362392377e-01
    23    4.779928679384e-01
    24   -4.626603186253e-02
    25   -1.649157033619e-10
    26    1.907815811016e-02
    27   -1.381090535573e-01
    28    4.817988204254e-01
    29    7.935088800422e-02
    30    7.268397513654e-11
    31    1.760432386323e-02
    32   -1.634480893494e-01
    33    1.760432186489e-02
    34   -1.634480888071e-01
    35    6.167214149051e-02
    36   -4.796020476576e-01
    37    5.263298322347e-01
    38   -3.741401983873e-01
    39    6.288148062464e-11
    40   -5.914749009211e-02
    41    4.541548737493e-01
    42    3.817310263703e-01
    43   -5.425568313820e-01
    44    6.192623504412e-11
    45    1.083018748184e-03
    46    2.378710107450e-02
    47    1.612799946081e-01
    48    6.167214128963e-02
    49   -4.796020466256e-01
    50   -5.263298326442e-01
    51    3.741401986662e-01
    52    4.105776416857e-11
    53   -5.914748995869e-02
    54    4.541548729450e-01
    55   -3.817310267903e-01
    56    5.425568319945e-01
    57    1.383925372836e-10
    58    1.083017866738e-03
    59    2.378710160791e-02
    60    1.612799951702e-01
Sym=X
Ene= 0.743018
Spin=Alpha
Occup=0
     1    4.676628672608e-03
     2   -3.267356234151e-02
     3    1.253702552829e-01
     4   -4.608944464686e-01
     5   -6.030456791161e-11
     6   -4.092058881874e-02
     7    3.067796399675e-01
     8    1.342011602931e-01
     9   -1.245374549589e-01
    10   -1.471216174245e-11
    11   -2.566044474150e-02
    12    1.948889314465e-01
    13   -1.844405721586e-01
    14   -1.377546504703e-01
    15   -1.774582794339e-12
    16   -4.676628534412e-03
    17    3.267356152376e-02
    18    1.253702568682e-01
    19   -4.608944488810e-01
    20    1.058645825962e-10
    21    4.092058885272e-02
    22   -3.067796403027e-01
    23    1.342011613984e-01
    24   -1.245374566402e-01
    25   -4.298617030735e-11
    26    2.566044454746e-02
    27   -1.948889300448e-01
    28   -1.844405708291e-01
    29   -1.377546494904e-01
    30   -2.892080785631e-11
    31   -5.053568549873e-02
    32   -5.863240427439e-02
    33    5.053568466509e-02
    34    5.863240326757e-02
    35   -6.515598833714e-02
    36    5.075391269210e-01
    37   -4.159896276971e-01
    38    6.623194481064e-01
    39   -1.124285104334e-10
    40    7.167923401131e-02
    41   -5.597196759736e-01
    42   -5.419159172167e-01
    43    4.371739598906e-01
    44   -5.917837645279e-11
    45    1.926769831561e-01
    46   -1.101158112810e-01
    47   -9.599126848152e-03
    48    6.515598807902e-02
    49   -5.075391253360e-01
    50   -4.159896281905e-01
    51    6.623194456892e-01
    52    7.517751340078e-11
    53   -7.167923370614e-02
    54    5.597196737626e-01
    55   -5.419159155014e-01
    56    4.371739608172e-01
    57    6.855219248120e-11
    58   -1.926769823630e-01
    59    1.101158107694e-01
    60    9.599128816799e-03
Sym=X
Ene= 0.806225
Spin=Alpha
Occup=0
     1    1.523178434140e-04
     2   -2.672323348308e-03
     3   -1.272430580274e-01
     4    7.266802335905e-01
     5    7.523572075255e-11
     6    1.224300125139e-02
     7   -9.362033358988e-02
     8   -5.352718163436e-01
     9    2.609810859070e-01
    10    1.992076711300e-11
    11   -1.297808447230e-02
    12    9.783070314930e-02
    13   -3.867503005504e-01
    14   -4.716307485591e-01
    15   -5.078648693611e-11
    16    1.523174098581e-04
    17   -2.672319933470e-03
    18    1.272430620534e-01
    19   -7.266802306599e-01
    20    1.741750959253e-10
    21    1.224300137350e-02
    22   -9.362033450426e-02
    23    5.352718147227e-01
    24   -2.609810903402e-01
    25   -1.900932762102e-10
    26   -1.297808493389e-02
    27    9.783070664160e-02
    28    3.867502990746e-01
    29    4.716307534923e-01
    30    8.709053213758e-11
    31   -1.852049973657e-02
    32    3.858208723446e-02
    33   -1.852050252423e-02
    34    3.858208922982e-02
    35   -3.178178699538e-02
    36    2.571763512942e-01
    37   -2.527717132149e-01
    38    4.511590960386e-01
    39   -1.057414233223e-10
    40    4.017548237360e-02
    41   -3.253849458850e-01
    42   -3.123986534270e-01
    43    2.639215223695e-01
    44   -1.384434610609e-11
    45    1.628330490229e-01
    46   -5.912157275789e-02
    47   -2.860239759518e-02
    48   -3.178178703916e-02
    49    2.571763519940e-01
    50    2.527717163936e-01
    51   -4.511590973999e-01
    52   -5.154576256648e-11
    53    4.017548250227e-02
    54   -3.253849470558e-01
    55    3.123986545436e-01
    56   -2.639215253494e-01
    57   -4.074994137745e-11
    58    1.628330492929e-01
    59   -5.912157270028e-02
    60   -2.860239933936e-02
Sym=X
Ene= 0.816028
Spin=Alpha
Occup=0
     1    6.177333980845e-02
     2   -4.733293856925e-01
     3    6.407735792639e-01
     4    1.426384795268e-01
     5   -9.491971071877e-11
     6   -6.155276318935e-02
     7    4.572268473398e-01
     8   -2.058439438512e-01
     9   -6.193330580047e-01
    10    1.205303928790e-10
    11    6.116152293339e-02
    12   -4.554530353300e-01
    13   -4.359587983072e-01
    14    5.072368159758e-01
    15   -1.737384661737e-10
    16   -6.177333982327e-02
    17    4.733293856780e-01
    18    6.407735781709e-01
    19    1.426384851169e-01
    20    3.723562667734e-11
    21    6.155276324736e-02
    22   -4.572268476163e-01
    23   -2.058439484922e-01
    24   -6.193330557248e-01
    25    9.750833339912e-12
    26   -6.116152298993e-02
    27    4.554530354574e-01
    28   -4.359588023525e-01
    29    5.072368123806e-01
    30    7.939775552989e-11
    31    2.599711299803e-01
    32   -2.845307265851e-01
    33   -2.599711296630e-01
    34    2.845307262529e-01
    35   -1.288222384855e-02
    36    7.822275903907e-02
    37    2.517572494026e-01
    38    3.531965846790e-02
    39    5.306400114683e-11
    40   -1.432842839672e-03
    41    2.020112458746e-02
    42   -3.035411041629e-02
    43   -1.588397762030e-01
    44   -2.296180307208e-11
    45    4.029286033706e-02
    46   -4.527250828269e-02
    47    1.314428751493e-01
    48    1.288222405259e-02
    49   -7.822276055736e-02
    50    2.517572480504e-01
    51    3.531966064959e-02
    52    1.602446777988e-11
    53    1.432842614124e-03
    54   -2.020112281290e-02
    55   -3.035411175435e-02
    56   -1.588397747581e-01
    57   -5.852485858780e-11
    58   -4.029286092193e-02
    59    4.527250836096e-02
    60   -1.314428748664e-01

======= END OF MOLDEN-FORMATTED INPUT FILE =======


        *************************************************************
        *                                                           *
        *  Thank you very much for using Q-Chem.  Have a nice day.  *
        *                                                           *
        *************************************************************


0 sent ACK to 0 
now end server 0 ... 
cleanup process ... done
