[Molden Format]
[Atoms] (Angs)
  C      1    6      0.00000000      0.00000000      0.00000000
[GTO]
1    0
S    9    1.000000
   3.39800000E+04    9.10000000E-05 
   5.08900000E+03    7.04000000E-04 
   1.15700000E+03    3.69300000E-03 
   3.26600000E+02    1.53600000E-02 
   1.06100000E+02    5.29290000E-02 
   3.81100000E+01    1.47043000E-01 
   1.47500000E+01    3.05631000E-01 
   6.03500000E+00    3.99345000E-01 
   2.53000000E+00    2.17051000E-01 
S    9    1.000000
   3.39800000E+04   -1.90000000E-05 
   5.08900000E+03   -1.51000000E-04 
   1.15700000E+03   -7.85000000E-04 
   3.26600000E+02   -3.32400000E-03 
   1.06100000E+02   -1.15120000E-02 
   3.81100000E+01   -3.41600000E-02 
   1.47500000E+01   -7.71730000E-02 
   6.03500000E+00   -1.41493000E-01 
   2.53000000E+00   -1.18019000E-01 
S    1    1.000000
   7.35500000E-01    1.00000000E+00 
S    1    1.000000
   2.90500000E-01    1.00000000E+00 
S    1    1.000000
   1.11100000E-01    1.00000000E+00 
P    3    1.000000
   3.45100000E+01    5.37800000E-03 
   7.91500000E+00    3.61320000E-02 
   2.36800000E+00    1.42493000E-01 
P    1    1.000000
   8.13200000E-01    1.00000000E+00 
P    1    1.000000
   2.89000000E-01    1.00000000E+00 
P    1    1.000000
   1.00700000E-01    1.00000000E+00 
D    1    1.000000
   1.84800000E+00    1.00000000E+00 
D    1    1.000000
   6.49000000E-01    1.00000000E+00 
D    1    1.000000
   2.28000000E-01    1.00000000E+00 
F    1    1.000000
   1.41900000E+00    1.00000000E+00 
F    1    1.000000
   4.85000000E-01    1.00000000E+00 
G    1    1.000000
   1.01100000E+00    1.00000000E+00 
S    1    1.000000
   4.14500000E-02    1.00000000E+00 
P    1    1.000000
   3.21800000E-02    1.00000000E+00 
D    1    1.000000
   7.66000000E-02    1.00000000E+00 
F    1    1.000000
   1.87000000E-01    1.00000000E+00 
G    1    1.000000
   4.24000000E-01    1.00000000E+00 

[MO]
Sym=X
Ene= -11.364989
Spin=Alpha
Occup=1
     1    9.933485032233e-01
     2    1.569413826923e-04
     3    1.575016500446e-02
     4   -3.479479796665e-03
     5    1.606869039186e-03
     6    3.433575276979e-19
     7   -1.763792519183e-18
     8   -3.127501553406e-18
     9   -2.730765991193e-19
    10    6.029812442047e-19
    11    1.272200963429e-19
    12    3.168032512172e-19
    13   -1.103915704156e-18
    14    4.175687126587e-19
    15   -2.933738903397e-19
    16    8.821349858890e-19
    17    5.702867645016e-19
    18    4.313889527211e-05
    19   -2.040170800970e-05
    20    1.455365010318e-04
    21    1.420904769014e-04
    22    4.063592933713e-05
    23   -2.059307629045e-04
    24    9.739042474596e-05
    25   -6.947390113675e-04
    26   -6.782909249076e-04
    27   -1.939813391626e-04
    28    2.017458652231e-05
    29   -9.541035114981e-06
    30    6.806169574956e-05
    31    6.645037545841e-05
    32    1.900382541866e-05
    33   -8.863024628681e-17
    34    1.915668118889e-16
    35   -6.295532500459e-17
    36    1.507614462864e-16
    37   -5.229932219406e-17
    38   -1.539187691424e-16
    39   -1.686305669909e-17
    40    1.969318842962e-16
    41   -1.013192495585e-16
    42    3.013094987624e-16
    43   -1.230240271623e-16
    44    6.771326106462e-17
    45    1.700328571035e-16
    46   -1.652338023495e-16
    47    2.653730766027e-06
    48    9.532774208940e-07
    49   -6.800248998626e-06
    50    2.256062265451e-06
    51    6.451994831358e-07
    52    3.665512987562e-06
    53   -8.256273863666e-06
    54   -5.452249833990e-06
    55   -3.396306986468e-06
    56   -4.037911717287e-04
    57    1.279001325509e-19
    58   -2.819031345847e-19
    59    1.539021197315e-19
    60   -1.760183916399e-05
    61    8.324421297761e-06
    62   -5.938266049815e-05
    63   -5.797667266774e-05
    64   -1.658051127165e-05
    65   -1.289096849001e-16
    66   -2.849358616517e-17
    67   -3.008163890012e-16
    68    1.656664234937e-16
    69   -5.052745509260e-18
    70   -1.615362511393e-16
    71    2.169494633497e-16
    72    6.583340018859e-07
    73    2.364825554938e-07
    74   -1.686956106217e-06
    75    5.596899988611e-07
    76    1.600576306137e-07
    77    9.093169037166e-07
    78   -2.048157971966e-06
    79   -1.352531786167e-06
    80   -8.425318742765e-07
Sym=X
Ene= -0.725629
Spin=Alpha
Occup=1
     1    5.542762649033e-04
     2    3.446148840806e-01
     3    2.809556170927e-01
     4    5.919295458516e-01
     5    2.714740611440e-01
     6    1.872002447712e-17
     7   -9.185703324214e-18
     8   -3.088506761160e-17
     9    3.476134892920e-17
    10   -1.731309176083e-17
    11   -6.858712417109e-17
    12    9.696617656802e-17
    13   -4.572600673179e-17
    14   -1.454070298289e-16
    15   -5.189048833562e-19
    16   -6.682478450855e-18
    17    3.403846294276e-18
    18   -4.499210932965e-04
    19    2.127805137482e-04
    20   -1.517878619150e-03
    21   -1.481942501326e-03
    22   -4.238140113290e-04
    23    1.354049871667e-04
    24   -6.403803371237e-05
    25    4.568117628901e-04
    26    4.459984759419e-04
    27    1.275485558732e-04
    28   -1.739131170957e-03
    29    8.224941057651e-04
    30   -5.867291049148e-03
    31   -5.728351842330e-03
    32   -1.638233863597e-03
    33   -1.134565047891e-17
    34   -6.823982583893e-18
    35    6.408759497670e-18
    36   -2.069316547898e-17
    37   -1.073824116037e-18
    38   -2.281042824099e-17
    39    9.602099265670e-18
    40    2.440438736221e-17
    41   -3.200043232874e-17
    42   -9.163311501081e-18
    43    3.540187262541e-17
    44   -1.520654978206e-17
    45    1.005955618989e-18
    46   -1.277633032238e-17
    47    1.306401667805e-05
    48    4.692941752078e-06
    49   -3.347727929727e-05
    50    1.110622540740e-05
    51    3.176303607132e-06
    52    1.804514845968e-05
    53   -4.064524384093e-05
    54   -2.684151871413e-05
    55   -1.671985912124e-05
    56    2.931760070482e-03
    57   -1.338972102470e-17
    58    8.290415038199e-18
    59    1.803076208762e-17
    60   -8.848039100791e-04
    61    4.184643692878e-04
    62   -2.985111493252e-03
    63   -2.914402885512e-03
    64   -8.334869874284e-04
    65    1.468581546615e-17
    66   -2.278970223602e-19
    67    3.953742547125e-17
    68   -7.024019671192e-17
    69    8.357411054692e-17
    70   -1.238648914539e-16
    71   -6.997975482401e-17
    72    7.906789700446e-05
    73    2.840244064169e-05
    74   -2.026093108109e-04
    75    6.722015387787e-05
    76    1.922359682972e-05
    77    1.092123236585e-04
    78   -2.459910854370e-04
    79   -1.624449792781e-04
    80   -1.011910939237e-04
Sym=X
Ene= -0.358431
Spin=Alpha
Occup=1
     1    1.018847714429e-17
     2    5.053862708195e-17
     3    1.457774040919e-16
     4   -1.132218519190e-16
     5    2.274649297450e-17
     6   -2.070424404088e-02
     7    1.476945810730e-01
     8   -7.415169983324e-02
     9   -4.045322159442e-02
    10    2.885747280063e-01
    11   -1.448821381258e-01
    12   -5.492521562412e-02
    13    3.918112952363e-01
    14   -1.967132001689e-01
    15   -3.592107681926e-02
    16    2.562440607824e-01
    17   -1.286503819802e-01
    18    9.242683620553e-17
    19   -7.794818580367e-17
    20   -2.678843625989e-17
    21    2.243145258419e-17
    22    1.180031659307e-16
    23   -9.790171989285e-17
    24    9.845818882939e-17
    25   -5.561648772675e-17
    26   -1.198283111007e-16
    27   -1.086816177877e-16
    28   -1.236806453528e-16
    29    2.278743624412e-16
    30    1.403339700950e-16
    31    9.163452140232e-17
    32    2.117915623935e-16
    33   -1.848354919922e-03
    34   -2.817936373702e-06
    35    2.010155347212e-05
    36   -2.746950178945e-03
    37   -7.855882275037e-04
    38   -9.519188002394e-04
    39    2.144119152645e-03
    40   -4.172220567833e-03
    41   -6.360195702406e-06
    42    4.537124518207e-05
    43   -6.200586206385e-03
    44   -1.773279477394e-03
    45   -2.148730150898e-03
    46    4.839837264264e-03
    47   -2.302096370037e-17
    48    5.952799773740e-17
    49    5.220561902174e-18
    50    3.290226267316e-17
    51   -6.232876520469e-17
    52   -8.907459944812e-17
    53   -2.626203937041e-17
    54   -1.973748383466e-19
    55    8.555648090591e-17
    56   -6.237995686925e-17
    57   -2.956052936076e-03
    58    2.108682089357e-02
    59   -1.058702493865e-02
    60   -2.187686339466e-16
    61   -1.688597496166e-16
    62    2.657610710972e-16
    63   -7.992671782046e-17
    64   -3.128078789916e-16
    65   -3.470534003892e-03
    66   -5.290691472669e-06
    67    3.773045292032e-05
    68   -5.157767658763e-03
    69   -1.475045719708e-03
    70   -1.787355334378e-03
    71    4.025850524434e-03
    72   -8.984494036776e-18
    73    7.931603828085e-18
    74   -6.480086608781e-17
    75   -1.248297289603e-16
    76    8.037181910412e-17
    77    7.878341147334e-17
    78    8.303900931647e-17
    79    4.695593970814e-18
    80    1.502591148460e-17
Sym=X
Ene= 0.018858
Spin=Alpha
Occup=0
     1   -6.123369915826e-17
     2   -3.246376498771e-17
     3   -2.919231805271e-16
     4    7.135071172233e-16
     5    2.021157817513e-16
     6   -7.902396292689e-03
     7    4.232822072158e-02
     8    8.651528277578e-02
     9   -1.499195362385e-02
    10    8.030256795793e-02
    11    1.641316183881e-01
    12   -2.454189632214e-02
    13    1.314556658915e-01
    14    2.686842428444e-01
    15   -1.944091603433e-02
    16    1.041328730519e-01
    17    2.128388330229e-01
    18    1.083708039386e-16
    19    5.230985478651e-17
    20   -1.051413054687e-16
    21    2.322782676420e-17
    22    1.152495575584e-16
    23   -3.233111351774e-16
    24    8.294135864684e-17
    25    1.242533043892e-16
    26   -9.872853739259e-17
    27   -1.279929583802e-16
    28    7.328720886628e-17
    29   -1.968652180233e-16
    30   -1.895886001516e-17
    31   -2.435200635413e-18
    32   -1.177166290802e-16
    33    1.033908021172e-05
    34   -2.612210746477e-04
    35    1.862745869251e-03
    36    5.882473699649e-04
    37    1.403780687372e-04
    38   -3.254204555570e-04
    39    6.517017051000e-04
    40    1.922629424434e-05
    41   -4.857503000998e-04
    42    3.463845095029e-03
    43    1.093868285705e-03
    44    2.610382230729e-04
    45   -6.051314223977e-04
    46    1.211863534777e-03
    47    4.880411489037e-17
    48   -3.421514527553e-17
    49   -2.238796150852e-17
    50    4.843388988360e-18
    51    6.978350762872e-17
    52   -9.792148628613e-17
    53    2.164088766962e-17
    54   -5.540673856312e-19
    55    4.368016227472e-17
    56   -7.984901810257e-16
    57   -4.317727242496e-02
    58    2.312737957193e-01
    59    4.727041923355e-01
    60    3.303775192970e-16
    61   -5.406260626158e-18
    62   -5.499643238966e-16
    63   -3.154604440453e-17
    64    1.939444284326e-16
    65    5.794902032056e-05
    66   -1.464166277999e-03
    67    1.044084134159e-02
    68    3.297174576057e-03
    69    7.868307235934e-04
    70   -1.824007540402e-03
    71    3.652838451539e-03
    72   -1.125838029087e-16
    73    1.403566957764e-16
    74    5.898464180547e-17
    75    1.409004853016e-17
    76   -2.775959465587e-16
    77   -5.363988955586e-17
    78   -4.641528324310e-17
    79   -8.893660104990e-19
    80   -1.516585039018e-16
Sym=X
Ene= 0.018858
Spin=Alpha
Occup=0
     1   -3.752329697015e-17
     2   -1.415719266907e-16
     3   -2.625511552078e-16
     4    2.705852121665e-16
     5   -8.234655628035e-16
     6    9.556286351397e-02
     7    1.427276525355e-02
     8    1.745758727773e-03
     9    1.812961475511e-01
    10    2.707743634116e-02
    11    3.311948850337e-03
    12    2.967826506403e-01
    13    4.432588536361e-02
    14    5.421679010088e-03
    15    2.350970406924e-01
    16    3.511284029104e-02
    17    4.294797565224e-03
    18   -9.751158612895e-17
    19   -3.245128941032e-16
    20    1.947090447922e-16
    21   -3.757989703469e-17
    22   -1.329007970146e-16
    23    7.693634414575e-17
    24    3.918229104777e-16
    25   -4.242422897700e-16
    26    1.097115264335e-16
    27   -1.571195306738e-16
    28   -1.153562161407e-16
    29   -1.381267613035e-16
    30    2.422359329538e-16
    31    2.367267400096e-17
    32    2.596145643449e-16
    33    2.085025310138e-07
    34   -6.008150441014e-07
    35    3.824242192943e-05
    36   -3.531756720378e-04
    37    1.279279599840e-03
    38    1.487920424775e-03
    39    6.766540218331e-04
    40    3.877557431801e-07
    41   -1.117078583569e-06
    42    7.111321584889e-05
    43   -6.567432389070e-04
    44    2.378867873972e-03
    45    2.766843759715e-03
    46    1.258263269191e-03
    47    1.183169450075e-16
    48   -2.422670667023e-16
    49   -8.540458019868e-17
    50   -1.514683191190e-16
    51    3.433839689735e-17
    52    5.174407504364e-17
    53    7.452912166897e-17
    54   -9.537196248140e-19
    55   -4.492389184324e-17
    56    9.532960968765e-16
    57    5.221385157586e-01
    58    7.798382558965e-02
    59    9.538536265806e-03
    60    1.977117195041e-16
    61   -7.746803643538e-16
    62   -2.534392750784e-17
    63    5.950858474765e-17
    64   -8.858685118814e-16
    65    1.169592831913e-06
    66   -3.370060320803e-06
    67    2.143511734645e-04
    68   -1.979578865148e-03
    69    7.170467243710e-03
    70    8.339913606821e-03
    71    3.792700301639e-03
    72   -3.172001948474e-17
    73    8.279270234365e-17
    74    4.436970196937e-17
    75    7.632888145929e-17
    76    1.173236789055e-17
    77    3.922852995685e-17
    78   -4.179420083731e-17
    79    6.295504002788e-18
    80   -1.090666475686e-16
Sym=X
Ene= 0.083419
Spin=Alpha
Occup=0
     1   -2.673141309135e-02
     2   -1.174217962705e-01
     3   -1.743452402922e-01
     4    2.249846362757e-01
     5   -1.358824051258e+00
     6   -1.802043020849e-16
     7    3.994098974153e-17
     8    2.126504651064e-16
     9   -3.861274178540e-16
    10    5.346325510702e-17
    11    4.657980219414e-16
    12   -4.708625139319e-16
    13    2.182266409030e-16
    14    5.157490036784e-16
    15   -1.000795249902e-15
    16   -1.516030322414e-16
    17    1.337485387385e-15
    18   -9.885174173904e-05
    19    4.675045867307e-05
    20   -3.334952428461e-04
    21   -3.255984155150e-04
    22   -9.311677216842e-05
    23   -1.266805061123e-06
    24    5.988990964435e-07
    25   -4.272202378777e-06
    26   -4.171523915717e-06
    27   -1.192859410331e-06
    28   -2.155153200580e-03
    29    1.019246291889e-03
    30   -7.270812028355e-03
    31   -7.098651029408e-03
    32   -2.030117554261e-03
    33    5.452272650939e-18
    34   -1.191366584834e-17
    35   -8.585171775827e-18
    36    9.712827563463e-18
    37   -5.835145312216e-17
    38    8.808598516950e-18
    39    4.060883402468e-17
    40   -4.989318729491e-17
    41    5.943718364734e-17
    42    1.074206691508e-16
    43   -3.450637280415e-17
    44    2.963768239104e-16
    45   -8.052072935340e-17
    46   -2.341417638775e-16
    47    1.716998503880e-05
    48    6.167811541293e-06
    49   -4.399828619297e-05
    50    1.459704365575e-05
    51    4.174559224844e-06
    52    2.371631305971e-05
    53   -5.341899265049e-05
    54   -3.527665276419e-05
    55   -2.197448025207e-05
    56    1.814033973284e+00
    57    1.129203896768e-15
    58    8.386041628736e-16
    59   -2.151318664909e-15
    60    1.261812639541e-02
    61   -5.967504725449e-03
    62    4.256939789320e-02
    63    4.156148494731e-02
    64    1.188600137780e-02
    65    2.354047865324e-16
    66   -2.151270443144e-16
    67   -3.721336350932e-16
    68    1.835483564482e-16
    69   -7.664946846145e-16
    70    2.415298967818e-16
    71    8.144872059106e-16
    72   -5.986388789891e-05
    73   -2.150437140125e-05
    74    1.534022109941e-04
    75   -5.089317385369e-05
    76   -1.455473067254e-05
    77   -8.268799158362e-05
    78    1.862478598229e-04
    79    1.229937419584e-04
    80    7.661506603987e-05
Sym=X
Ene= 0.089901
Spin=Alpha
Occup=0
     1    3.881003299495e-18
     2    8.284055476961e-17
     3    3.386301649153e-17
     4   -4.241176228110e-18
     5    1.518924847520e-15
     6    4.115785211790e-03
     7   -2.936020658287e-02
     8    1.474057384852e-02
     9    1.305314548097e-02
    10   -9.311533744462e-02
    11    4.674948986641e-02
    12   -2.537392356669e-03
    13    1.810041193200e-02
    14   -9.087605535038e-03
    15    6.584130402513e-02
    16   -4.696821692085e-01
    17    2.358088662845e-01
    18   -6.133963457017e-17
    19   -8.144914248190e-17
    20    1.231098554583e-16
    21   -1.705190696145e-17
    22   -6.620330100693e-18
    23   -7.326744524382e-17
    24    2.847875793194e-16
    25   -1.968580086584e-16
    26   -1.028228213314e-16
    27   -1.457273386765e-16
    28    4.917276087594e-16
    29   -1.075579330507e-15
    30    1.895984248382e-16
    31    2.377069128709e-17
    32    5.802812352842e-17
    33    2.665101406435e-04
    34    4.064568833328e-07
    35   -2.899421195393e-06
    36    3.960763130833e-04
    37    1.132718982017e-04
    38    1.372549413331e-04
    39   -3.091562011120e-04
    40    1.900391329144e-03
    41    2.897086375427e-06
    42   -2.066662646289e-05
    43    2.824284916586e-03
    44    8.077051627927e-04
    45    9.787181494578e-04
    46   -2.204482161923e-03
    47   -3.468860945565e-17
    48   -2.070282064755e-17
    49    3.855140281132e-17
    50   -3.959171335080e-17
    51   -2.651082479577e-16
    52   -1.678678930781e-17
    53   -1.118282879810e-17
    54   -9.431541310635e-19
    55    1.682419058057e-16
    56   -2.208957192324e-15
    57   -1.576367546722e-01
    58    1.124508939130e+00
    59   -5.645718293167e-01
    60   -2.198822847946e-15
    61    3.209173845975e-15
    62    6.828351240323e-16
    63    1.376622471426e-16
    64    1.670701265456e-16
    65   -2.878268550886e-03
    66   -4.387193030712e-06
    67    3.129680549009e-05
    68   -4.277567728665e-03
    69   -1.223324528165e-03
    70   -1.482333848514e-03
    71    3.338833244921e-03
    72   -9.691764234415e-17
    73    3.402281423220e-16
    74   -2.182252899681e-16
    75   -2.068626601556e-17
    76    6.659256706814e-16
    77   -2.479787643793e-16
    78    1.411379380629e-16
    79   -2.195112430652e-20
    80   -2.993882805477e-16
Sym=X
Ene= 0.108245
Spin=Alpha
Occup=0
     1   -5.504842018923e-17
     2   -2.491319014628e-16
     3   -3.560022416071e-16
     4    4.610288006539e-16
     5   -2.621241641049e-15
     6    6.541020323558e-03
     7   -3.503623377064e-02
     8   -7.161119363778e-02
     9    1.658659827373e-02
    10   -8.884423122349e-02
    11   -1.815903444933e-01
    12    9.206523078312e-03
    13   -4.931370095334e-02
    14   -1.007931407131e-01
    15    6.601693523118e-02
    16   -3.536122147000e-01
    17   -7.227544084320e-01
    18    7.969590369252e-17
    19    2.366552745547e-16
    20   -8.275525837479e-17
    21   -1.355015803171e-17
    22    1.745225918295e-16
    23   -2.087334991485e-16
    24   -4.701683143433e-16
    25    9.484810370950e-17
    26    7.751030392249e-17
    27   -4.122072982398e-16
    28    2.379219093289e-17
    29    3.020897112783e-16
    30    3.739555730657e-16
    31   -8.257918119884e-17
    32    2.681305821617e-16
    33   -7.458720561564e-06
    34    1.884240939623e-04
    35   -1.343637187685e-03
    36   -4.243159996176e-04
    37   -1.012579801959e-04
    38    2.347320882525e-04
    39   -4.700855573767e-04
    40   -2.817941322851e-05
    41    7.119747121370e-04
    42   -5.077029288153e-03
    43   -1.603306005135e-03
    44   -3.826104572448e-04
    45    8.869519347941e-04
    46   -1.776250555620e-03
    47   -1.930511904063e-17
    48    4.268039217657e-17
    49   -5.812983685715e-17
    50   -3.086236162313e-17
    51    6.850524001030e-17
    52    3.581285143891e-17
    53    3.208765454206e-17
    54    7.758273013246e-19
    55   -3.484935646592e-17
    56    3.251158062356e-15
    57   -9.715160038921e-02
    58    5.203814650659e-01
    59    1.063617377816e+00
    60    9.214680571195e-16
    61   -1.497522122812e-15
    62   -4.369541345935e-16
    63   -2.015005780952e-18
    64   -1.118728323733e-15
    65   -9.881523386779e-06
    66    2.496046283486e-04
    67   -1.779911030494e-03
    68   -5.620905371767e-04
    69   -1.341356341251e-04
    70    3.109492545812e-04
    71   -6.227222408731e-04
    72   -1.419550344027e-16
    73    1.098328222935e-16
    74    1.917903908230e-17
    75   -6.779004370818e-17
    76   -3.904231326116e-17
    77   -2.550742047549e-17
    78    4.043488794036e-18
    79    1.551380578336e-18
    80   -6.233306224316e-17
Sym=X
Ene= 0.108245
Spin=Alpha
Occup=0
     1    2.985730695111e-17
     2    1.516072251165e-16
     3    2.037067788380e-16
     4   -2.614159117541e-16
     5    1.761225878836e-15
     6   -7.910011342013e-02
     7   -1.181395513010e-02
     8   -1.445011791102e-03
     9   -2.005806079798e-01
    10   -2.995760818036e-02
    11   -3.664234626483e-03
    12   -1.113338402807e-01
    13   -1.662820971760e-02
    14   -2.033860478775e-03
    15   -7.983382690675e-01
    16   -1.192353859433e-01
    17   -1.458415018788e-02
    18   -3.822235550567e-17
    19    1.428485940104e-16
    20   -8.267018329026e-17
    21   -3.446736871000e-17
    22   -1.872632864366e-16
    23    7.414263728237e-17
    24   -5.143320448864e-16
    25    3.365941394614e-16
    26   -8.334262978224e-17
    27   -1.732284836046e-16
    28   -1.150423897157e-16
    29    9.996847606688e-16
    30   -6.769748500850e-17
    31    1.470743549802e-16
    32    3.903718385770e-16
    33   -1.505266349648e-07
    34    4.330943100526e-07
    35   -2.758492675139e-05
    36    2.547526248664e-04
    37   -9.227707843949e-04
    38   -1.073268228714e-03
    39   -4.880842836315e-04
    40   -5.692134249278e-07
    41    1.638958396672e-06
    42   -1.042309421526e-04
    43    9.626020500511e-04
    44   -3.486756840525e-03
    45   -4.055418087502e-03
    46   -1.844261465610e-03
    47   -3.350422996152e-17
    48   -1.210364415415e-16
    49   -4.103967089958e-17
    50   -8.743662730772e-17
    51    2.154998953004e-16
    52    4.039687672453e-17
    53    6.605611391795e-17
    54    1.851681428269e-18
    55    2.026922601516e-17
    56   -2.258703003548e-15
    57    1.174847791884e+00
    58    1.754687277677e-01
    59    2.146229048113e-02
    60    2.494065326836e-15
    61   -7.049527479384e-15
    62    8.453164419453e-17
    63   -1.476641955390e-15
    64   -4.036428663716e-15
    65   -1.991363960646e-07
    66    5.728366062686e-07
    67   -3.654189593544e-05
    68    3.374700108297e-04
    69   -1.222390287543e-03
    70   -1.421756653189e-03
    71   -6.465637541076e-04
    72    1.026226846321e-16
    73    1.721207503572e-16
    74    5.096486650820e-17
    75    1.902163879730e-16
    76   -9.872643497939e-17
    77   -3.645787257627e-16
    78   -4.695103775225e-17
    79   -6.253592384466e-18
    80    4.142486484537e-17
Sym=X
Ene= 0.232374
Spin=Alpha
Occup=0
     1   -9.939490675847e-11
     2    2.869997549966e-10
     3    3.659085355091e-10
     4   -1.886852581320e-10
     5    2.642442598032e-09
     6   -3.390491061584e-16
     7   -4.469854401191e-18
     8   -1.360694390035e-16
     9   -1.403270328343e-15
    10    7.006636387082e-16
    11   -2.769704055331e-16
    12   -8.502117081035e-16
    13   -3.810953625407e-16
    14    3.437950259701e-16
    15   -4.749755684780e-15
    16   -7.636639406474e-16
    17   -3.639648353111e-15
    18    2.164699059675e-03
    19   -7.911049285154e-03
    20    1.459483005230e-04
    21   -7.274262822481e-04
    22   -4.249006062072e-03
    23   -1.576700082886e-02
    24    5.762164617459e-02
    25   -1.063042097973e-03
    26    5.298349711941e-03
    27    3.094844586057e-02
    28    4.541974979723e-02
    29   -1.659897596916e-01
    30    3.062289901121e-03
    31   -1.526286894360e-02
    32   -8.915271467092e-02
    33   -4.593434468692e-18
    34   -1.063755818347e-16
    35    9.881705924666e-17
    36   -6.872515969313e-17
    37    7.676355121108e-17
    38    1.758380482584e-17
    39    1.400725743727e-16
    40   -4.770190352799e-17
    41    3.888040409556e-16
    42   -1.113774113129e-16
    43   -1.099388190626e-16
    44   -3.240994912396e-16
    45   -2.264065149602e-16
    46   -6.174889619979e-17
    47   -4.031568336812e-05
    48    5.520586805178e-05
    49    1.803708889442e-04
    50    1.532579464906e-04
    51   -4.996935803925e-04
    52   -1.877376905224e-04
    53   -1.208963202218e-04
    54    3.703723828867e-05
    55   -3.384584331171e-04
    56   -1.782498732770e-09
    57    9.123744712643e-15
    58   -6.324191593999e-16
    59    5.189378567003e-15
    60   -2.567558674877e-01
    61    9.383329043757e-01
    62   -1.731098497950e-02
    63    8.628034869261e-02
    64    5.039763378552e-01
    65    5.246611759464e-16
    66   -4.289788764206e-16
    67    9.920056715745e-17
    68    9.425254611124e-16
    69    6.461230338728e-16
    70    8.116707199324e-16
    71   -1.532857327453e-16
    72    2.376979456429e-04
    73   -3.254890701547e-04
    74   -1.063455619755e-03
    75   -9.035993377118e-04
    76    2.946162949413e-03
    77    1.106891692249e-03
    78    7.127973721451e-04
    79   -2.183689006385e-04
    80    1.995530847155e-03
Sym=X
Ene= 0.232374
Spin=Alpha
Occup=0
     1   -4.983985538792e-10
     2    4.714113478623e-10
     3    4.720465013655e-10
     4    3.610072901794e-10
     5    3.542065275716e-09
     6    1.004046193388e-16
     7   -9.886804003472e-17
     8   -1.346586944142e-16
     9    2.972513477021e-16
    10   -5.354268360858e-17
    11    2.538789966190e-16
    12    4.122851105609e-16
    13   -7.826758271137e-16
    14   -1.318158852619e-15
    15    2.473040128097e-16
    16    1.001026347388e-15
    17    1.640667863666e-15
    18   -6.059612188408e-03
    19   -2.281497053831e-03
    20   -3.832770841229e-03
    21    5.408347859958e-03
    22    1.031389598019e-04
    23    4.413634991367e-02
    24    1.661772163289e-02
    25    2.791671783387e-02
    26   -3.939273730161e-02
    27   -7.512320961898e-04
    28   -1.271428763876e-01
    29   -4.787040694318e-02
    30   -8.041925952722e-02
    31    1.134780417559e-01
    32    2.164063616476e-03
    33    1.183828232445e-17
    34    2.824154695115e-17
    35   -6.312651372925e-18
    36    2.338710501168e-17
    37    6.297704746100e-17
    38    2.137861855710e-17
    39   -5.076076062420e-17
    40   -6.856283160212e-17
    41   -7.852139194364e-17
    42   -7.238663719994e-17
    43   -5.322601882668e-17
    44   -2.400911975163e-16
    45   -7.946167697274e-17
    46   -8.804139344440e-17
    47    1.128549695670e-04
    48    9.463726992724e-05
    49   -4.699796808639e-04
    50    2.454145509517e-05
    51   -1.871464487731e-04
    52   -1.110203808377e-04
    53    5.581472677319e-05
    54    4.084589284001e-04
    55    1.252863215837e-04
    56    1.529728242270e-09
    57   -1.024193612028e-15
    58    2.401913848449e-17
    59   -9.178357519733e-16
    60    7.187331838093e-01
    61    2.706093295485e-01
    62    4.546065175193e-01
    63   -6.414863937725e-01
    64   -1.223335155292e-02
    65    3.715958764013e-17
    66    2.417101660020e-16
    67    3.538639702305e-16
    68    2.646676100240e-16
    69    7.894077728139e-16
    70    3.125165430613e-16
    71    3.323687538766e-16
    72   -6.653843653775e-04
    73   -5.579747357246e-04
    74    2.770972186794e-03
    75   -1.446942761112e-04
    76    1.103403981047e-03
    77    6.545695914996e-04
    78   -3.290794321131e-04
    79   -2.408249942569e-03
    80   -7.386803356630e-04
Sym=X
Ene= 0.241641
Spin=Alpha
Occup=0
     1    1.173175393798e-09
     2   -1.288135311661e-08
     3   -5.541090911424e-09
     4   -6.345821076494e-08
     5    6.943036002491e-08
     6    7.075768141876e-17
     7    1.217638348949e-17
     8    2.008212264785e-16
     9   -3.885127062722e-16
    10   -2.179171296380e-17
    11   -2.064953976665e-16
    12    5.816969121694e-16
    13    3.297077812784e-16
    14    1.994616051112e-15
    15   -1.352800489246e-16
    16   -4.278423176777e-16
    17   -2.112469517212e-15
    18   -6.333725017005e-03
    19   -6.870116023995e-04
    20    5.494417991122e-03
    21   -3.470256028121e-03
    22   -1.164830073702e-03
    23    4.947956221132e-02
    24    5.366989462457e-03
    25   -4.292283531782e-02
    26    2.710991522703e-02
    27    9.099744240824e-03
    28   -1.355483264112e-01
    29   -1.470276443696e-02
    30    1.175862847710e-01
    31   -7.426710768378e-02
    32   -2.492858059456e-02
    33    1.301234253280e-17
    34   -6.239009084818e-18
    35    8.361226673106e-17
    36    2.835086909351e-17
    37    9.504511785253e-17
    38    1.254743151463e-16
    39    2.173060425350e-17
    40    2.310140891827e-16
    41   -7.185223887442e-17
    42   -1.597232567172e-16
    43   -8.954191306831e-17
    44    6.848882525402e-17
    45    3.442798155388e-17
    46    9.303368901964e-17
    47   -4.709135397054e-04
    48    4.357467197905e-05
    49   -2.866681260800e-04
    50   -6.567275541712e-04
    51   -1.854294209620e-04
    52   -2.920440699854e-05
    53    9.841962848322e-05
    54   -2.285176298271e-04
    55   -1.571421405509e-04
    56   -4.939225716776e-08
    57   -1.729203292393e-16
    58    1.111421843321e-15
    59   -5.439974817012e-16
    60    7.590600548701e-01
    61    8.233434358693e-02
    62   -6.584740476383e-01
    63    4.158899673683e-01
    64    1.395980902521e-01
    65   -6.055968381421e-16
    66    6.713827919858e-17
    67    6.450720576847e-16
    68   -7.118124332804e-16
    69   -5.566755635165e-16
    70    1.389529863762e-16
    71   -3.154404934911e-16
    72    2.946432144899e-03