[Molden Format]
[Atoms] (Angs)
 Mo      1   42     -0.00000567      0.29568545     -0.00000000
  O      2    8     -0.00000136      1.98537946     -0.00000000
 Cl      3   17     -2.42022452     -0.41620543     -0.00000000
 Cl      4   17     -0.00000447     -0.41620355     -2.42023559
 Cl      5   17      2.42024811     -0.41620067      0.00000000
 Cl      6   17     -0.00000447     -0.41620355      2.42023559
[GTO]
1    0
S    3    1.000000
   2.36100000E+00   -9.12176000E-01 
   1.30900000E+00    1.14774530E+00 
   4.50000000E-01    6.09710900E-01 
S    4    1.000000
   2.36100000E+00    8.13925900E-01 
   1.30900000E+00   -1.13600840E+00 
   4.50000000E-01   -1.16115920E+00 
   1.68100000E-01    1.00647860E+00 
S    1    1.000000
   4.23000000E-02    1.00000000E+00 
P    3    1.000000
   4.89500000E+00   -9.08258000E-02 
   1.04400000E+00    7.04289900E-01 
   3.87700000E-01    3.97317900E-01 
P    2    1.000000
   4.99500000E-01   -1.08194500E-01 
   7.80000000E-02    1.03680930E+00 
P    1    1.000000
   2.47000000E-02    1.00000000E+00 
D    3    1.000000
   2.99300000E+00    5.27063000E-02 
   1.06300000E+00    5.00390700E-01 
   3.72100000E-01    5.79402400E-01 
D    1    1.000000
   1.17800000E-01    1.00000000E+00 

2    0
S    6    1.000000
   5.48467170E+03    1.83110000E-03 
   8.25234950E+02    1.39501000E-02 
   1.88046960E+02    6.84451000E-02 
   5.29645000E+01    2.32714300E-01 
   1.68975700E+01    4.70193000E-01 
   5.79963530E+00    3.58520900E-01 
SP   3    1.000000
   1.55396160E+01   -1.10777500E-01   7.08743000E-02 
   3.59993360E+00   -1.48026300E-01   3.39752800E-01 
   1.01376180E+00    1.13076700E+00   7.27158600E-01 
SP   1    1.000000
   2.70005800E-01    1.00000000E+00   1.00000000E+00 
D    1    1.000000
   8.00000000E-01    1.00000000E+00 

3    0
S    2    1.000000
   2.23100000E+00   -4.90058900E-01 
   4.72000000E-01    1.25426840E+00 
S    1    1.000000
   1.63100000E-01    1.00000000E+00 
P    2    1.000000
   6.29600000E+00   -6.35641000E-02 
   6.33300000E-01    1.01413550E+00 
P    1    1.000000
   1.81900000E-01    1.00000000E+00 

4    0
S    2    1.000000
   2.23100000E+00   -4.90058900E-01 
   4.72000000E-01    1.25426840E+00 
S    1    1.000000
   1.63100000E-01    1.00000000E+00 
P    2    1.000000
   6.29600000E+00   -6.35641000E-02 
   6.33300000E-01    1.01413550E+00 
P    1    1.000000
   1.81900000E-01    1.00000000E+00 

5    0
S    2    1.000000
   2.23100000E+00   -4.90058900E-01 
   4.72000000E-01    1.25426840E+00 
S    1    1.000000
   1.63100000E-01    1.00000000E+00 
P    2    1.000000
   6.29600000E+00   -6.35641000E-02 
   6.33300000E-01    1.01413550E+00 
P    1    1.000000
   1.81900000E-01    1.00000000E+00 

6    0
S    2    1.000000
   2.23100000E+00   -4.90058900E-01 
   4.72000000E-01    1.25426840E+00 
S    1    1.000000
   1.63100000E-01    1.00000000E+00 
P    2    1.000000
   6.29600000E+00   -6.35641000E-02 
   6.33300000E-01    1.01413550E+00 
P    1    1.000000
   1.81900000E-01    1.00000000E+00 

[MO]
Sym=X
Ene= -18.887347
Spin=Alpha
Occup=1
     1    4.352885849350e-03
     2    2.984170144271e-03
     3    2.094117231504e-04
     4    9.118625185737e-09
     5    1.587438683707e-03
     6    1.150563947586e-14
     7    8.003139299423e-08
     8    6.933385758744e-03
     9    9.130369704897e-14
    10   -9.881292007308e-09
    11   -1.160449997362e-03
    12   -1.065507288798e-14
    13   -7.409624795277e-05
    14    6.455262702870e-16
    15    7.321796655750e-15
    16   -1.283384668497e-04
    17    2.789315912393e-09
    18   -2.081517169185e-03
    19    3.876056219628e-16
    20    6.862975818428e-14
    21   -3.605291651432e-03
    22   -2.114383648812e-08
    23    9.951060096010e-01
    24    2.879663285796e-02
    25   -4.472028074184e-09
    26   -9.009193157285e-04
    27    4.237002239705e-13
    28   -1.678137422606e-02
    29    1.186656459302e-08
    30    2.211808137634e-03
    31   -2.176214342214e-13
    32    2.769035579940e-05
    33   -2.307352097936e-14
    34    2.487469950580e-14
    35    4.796097733871e-05
    36   -1.238559552134e-09
    37   -1.879532931636e-04
    38    1.295977584956e-03
    39   -8.831079475828e-05
    40    1.175288059293e-04
    41    8.185274181773e-14
    42    7.936317486016e-04
    43   -1.723622632825e-04
    44    4.158768729465e-14
    45   -1.879459350666e-04
    46    1.295925989386e-03
    47    2.516357051591e-09
    48    1.175294164513e-04
    49   -8.830914055448e-05
    50   -1.074289598882e-08
    51   -1.723679399036e-04
    52    7.936157097466e-04
    53   -1.879382472447e-04
    54    1.295871452797e-03
    55    8.830746989582e-05
    56    1.175303559228e-04
    57   -7.496364848681e-14
    58   -7.935990889733e-04
    59   -1.723753712314e-04
    60   -6.224396610614e-14
    61   -1.879459350495e-04
    62    1.295925989333e-03
    63    2.516514319281e-09
    64    1.175294164666e-04
    65    8.830914055026e-05
    66   -1.074279360866e-08
    67   -1.723679399643e-04
    68   -7.936157097364e-04
Sym=X
Ene= -2.223106
Spin=Alpha
Occup=1
     1    9.908200885011e-01
     2   -1.066678387543e-02
     3   -2.351757436016e-03
     4   -4.622347818762e-07
     5    1.154852057128e-02
     6   -3.217262801644e-12
     7    6.653168133561e-08
     8    5.069376646920e-03
     9    3.552817711607e-12
    10   -2.331261389320e-09
    11   -1.811907623418e-03
    12   -3.693920605248e-13
    13   -8.121423808329e-03
    14   -3.006195995307e-12
    15    9.385106763685e-12
    16   -1.406672156127e-02
    17    1.057742321418e-07
    18   -2.044562850914e-04
    19    1.278778234345e-12
    20   -4.606753908261e-12
    21   -3.541290903276e-04
    22   -7.224018535768e-08
    23   -5.980237297924e-03
    24    1.367667168427e-02
    25   -3.729773273884e-08
    26   -1.232876585474e-02
    27    2.127725063947e-13
    28   -1.019987322109e-03
    29    3.421436263993e-08
    30    4.340878743030e-03
    31   -1.268916882618e-13
    32   -2.246212954642e-04
    33   -1.312589389809e-14
    34    6.449555210379e-13
    35   -3.890553899028e-04
    36    3.278155084825e-11
    37    6.581430715467e-04
    38    2.788781445731e-03
    39    8.126502337628e-04
    40    2.563554685461e-04
    41    2.500209590363e-11
    42    2.535005920145e-03
    43    4.879527219013e-04
    44   -4.907272409425e-11
    45    6.580773254237e-04
    46    2.788707198735e-03
    47    7.638398842143e-10
    48    2.563256073958e-04
    49    8.125603579064e-04
    50   -1.109110459263e-08
    51    4.879597774795e-04
    52    2.535007650060e-03
    53    6.580069008230e-04
    54    2.788630382533e-03
    55   -8.124642542995e-04
    56    2.562935576974e-04
    57   -2.477439583521e-11
    58   -2.535011349089e-03
    59    4.879659342669e-04
    60    4.777577258911e-11
    61    6.580773254436e-04
    62    2.788707194822e-03
    63    8.139737708359e-10
    64    2.563256070048e-04
    65   -8.125603576810e-04
    66   -1.118937054401e-08
    67    4.879597786679e-04
    68   -2.535007648013e-03
Sym=X
Ene= -1.288950
Spin=Alpha
Occup=1
     1   -2.404943692558e-02
     2    4.413993944808e-03
     3   -3.125713297755e-03
     4    4.167375123599e-06
     5    9.674756530632e-01
     6    2.915669687386e-10
     7    6.126846661776e-08
     8   -4.988034029588e-03
     9   -8.693191627161e-12
    10   -3.047089066461e-08
    11    1.472856175196e-03
    12    1.445239128343e-12
    13   -8.678603847001e-03
    14    2.462891648340e-11
    15   -2.075247644624e-11
    16   -1.503177801139e-02
    17   -2.162502616632e-07
    18    2.329707725074e-03
    19   -7.078221951554e-12
    20    8.243742288399e-12
    21    4.035173050661e-03
    22   -7.623181360430e-08
    23   -3.592848116029e-02
    24    7.555747158531e-02
    25   -1.470033410196e-07
    26   -5.796121573388e-02
    27    3.482608809530e-12
    28    4.962322286207e-02
    29    6.118940514119e-09
    30   -6.581660521517e-03
    31    6.153990690689e-13
    32   -4.697912481700e-03
    33   -2.143861094048e-13
    34   -1.555140620889e-12
    35   -8.137023059442e-03
    36    3.255408691461e-08
    37   -2.444725580150e-03
    38   -1.799661100020e-03
    39   -2.444664087522e-03
    40   -3.015961904817e-05
    41   -7.622603576464e-12
    42   -1.501394532866e-03
    43    7.685257608794e-04
    44    1.704446730394e-11
    45   -2.444559552498e-03
    46   -1.799603822896e-03
    47    8.405255739960e-09
    48   -3.016167288230e-05
    49   -2.444506840466e-03
    50   -9.047579886791e-09
    51    7.685314657133e-04
    52   -1.501395211454e-03
    53   -2.444381504175e-03
    54   -1.799540707890e-03
    55    2.444338634613e-03
    56   -3.016220599945e-05
    57    7.219820511151e-12
    58    1.501393334874e-03
    59    7.685370678806e-04
    60   -1.330198852958e-11
    61   -2.444559547736e-03
    62   -1.799603813100e-03
    63    8.389394117847e-09
    64   -3.016167067356e-05
    65    2.444506835352e-03
    66   -9.010870387049e-09
    67    7.685314637308e-04
    68    1.501395207442e-03
Sym=X
Ene= -1.225682
Spin=Alpha
Occup=1
     1    1.735618215352e-11
     2    4.955630217558e-12
     3   -8.449628914252e-13
     4    7.030185678394e-12
     5   -2.772832238166e-10
     6    9.964098242105e-01
     7    3.341001043766e-10
     8   -1.753507577478e-12
     9    4.770150068537e-04
    10   -6.283565353021e-11
    11    1.047797388221e-12
    12    5.204773922755e-04
    13    1.498111677494e-11
    14   -2.680887711666e-07
    15    5.196976206833e-04
    16    2.069764306748e-11
    17    4.181943913923e-11
    18   -7.796092625667e-12
    19   -1.494422034445e-08
    20   -1.670845793392e-03
    21   -4.441642442266e-12
    22   -1.331301511286e-10
    23    1.250564570363e-11
    24   -2.540220688498e-11
    25    4.183624877838e-12
    26    1.877610801018e-11
    27    1.147394206754e-02
    28   -2.066429521433e-11
    29   -1.114602208849e-11
    30    3.338378483789e-12
    31    5.091429132562e-03
    32    1.343189795636e-12
    33   -6.759344723290e-09
    34   -3.096001352220e-03
    35    2.121871215031e-12
    36    2.210847157643e-12
    37   -1.031763676300e-11
    38    1.573156794126e-10
    39   -4.293991742563e-11
    40   -8.147424141809e-12
    41    5.343914307425e-04
    42    1.711232544870e-10
    43    2.831477265467e-11
    44    1.257795022260e-03
    45   -8.864318335362e-03
    46   -4.817710025742e-03
    47    1.011318521640e-08
    48   -2.497596137231e-03
    49   -7.824512007845e-03
    50   -2.772821277097e-09
    51   -1.443041188212e-03
    52   -2.598501502252e-03
    53    1.212200339801e-11
    54   -1.568721238746e-10
    55   -4.446216593686e-11
    56    8.113800183021e-12
    57    5.342822353805e-04
    58    1.709828948935e-10
    59   -2.814085020330e-11
    60    1.257755574997e-03
    61    8.864318337181e-03
    62    4.817710031411e-03
    63   -1.005071678679e-08
    64    2.497596137291e-03
    65   -7.824512010177e-03
    66    2.586136369471e-09
    67    1.443041189941e-03
    68   -2.598501503686e-03
Sym=X
Ene= -1.225682
Spin=Alpha
Occup=1
     1    4.190799466663e-07
     2   -3.227363376007e-07
     3   -1.275147671201e-07
     4    9.964098296016e-01
     5   -4.282257241579e-06
     6   -7.812649073687e-12
     7    4.770043991465e-04
     8    2.397150998208e-07
     9   -3.268421041264e-10
    10    5.204806041492e-04
    11   -7.891431443344e-08
    12    6.302857843069e-11
    13    2.781880336669e-07
    14    9.431117608391e-12
    15    1.019846154057e-11
    16   -4.410571551193e-07
    17    5.197025779284e-04
    18    6.534155044488e-08
    19   -5.594601485032e-14
    20    1.178981159687e-10
    21   -2.561886344283e-07
    22   -1.670842669918e-03
    23    6.174566657420e-08
    24   -9.507561065382e-08
    25    1.147394268376e-02
    26    6.244528844849e-08
    27   -3.034732993296e-12
    28   -2.673132443184e-07
    29    5.091429637920e-03
    30    2.700732982891e-08
    31    1.199365040377e-11
    32    4.060077787180e-09
    33   -1.654024936954e-13
    34   -1.697471445530e-13
    35    6.734722503542e-09
    36   -3.096001356038e-03
    37   -8.864743203750e-03
    38   -4.817716796167e-03
    39   -7.824843749534e-03
    40   -2.497750109856e-03
    41   -3.068864504676e-11
    42   -2.598421364635e-03
    43   -1.443014249996e-03
    44    9.069003545469e-11
    45    1.451578054300e-08
    46    3.911091829817e-08
    47    5.343380804752e-04
    48    6.335547709591e-09
    49    1.187121707340e-08
    50    1.257777964767e-03
    51   -1.683722843966e-08
    52    2.863556218970e-08
    53    8.863865273031e-03
    54    4.817699216013e-03
    55   -7.824159290624e-03
    56    2.497429904223e-03
    57   -3.066135054998e-11
    58   -2.598585196658e-03
    59    1.443065690345e-03
    60    9.123662761804e-11
    61    1.449329456283e-08
    62    3.941581407555e-08
    63    5.343380805909e-04
    64    6.318112839388e-09
    65   -1.178256594693e-08
    66    1.257777964604e-03
    67   -1.677560681984e-08
    68   -2.897425257594e-08
Sym=X
Ene= -0.623117
Spin=Alpha
Occup=1
     1   -6.993474856692e-02
     2    6.760820721145e-02
     3   -6.334951276906e-03
     4   -6.638353081540e-07
     5   -2.849572573311e-01
     6    1.160256495274e-11
     7   -7.349536913668e-07
     8   -2.595268184624e-02
     9    2.458068256127e-12
    10    1.914012946552e-07
    11    1.362490672859e-02
    12   -2.384430170780e-13
    13   -6.457514881676e-02
    14   -1.281903900467e-11
    15    7.230177718591e-12
    16   -1.118474413972e-01
    17    6.850331730998e-07
    18    1.078053506593e-02
    19    2.418745104911e-12
    20   -1.805426340907e-12
    21    1.867241181349e-02
    22    1.801482914271e-07
    23   -2.273936708467e-01
    24    5.023029986429e-01
    25   -2.311033243090e-07
    26   -5.721585866435e-02
    27    1.067026431279e-11
    28    5.653934768822e-01
    29   -2.548082381690e-07
    30   -4.399303475367e-02
    31    2.419497746510e-12
    32   -8.309449639593e-03
    33   -2.448001164052e-12
    34   -1.537804458758e-14
    35   -1.439238798218e-02
    36    9.866146380768e-08
    37    4.939645511270e-03
    38   -1.314570391509e-03
    39    2.299369475017e-03
    40   -7.523301802749e-07
    41   -1.049528639991e-12
    42   -4.325684033723e-03
    43   -2.632341680191e-03
    44    2.166913391831e-12
    45    4.939364074686e-03
    46   -1.314412518455e-03
    47   -2.356103240273e-08
    48   -7.284389957094e-07
    49    2.299237570909e-03
    50    7.727540098628e-08
    51   -2.632236490515e-03
    52   -4.325498511603e-03
    53    4.939061776476e-03
    54   -1.314245365961e-03
    55   -2.299096370459e-03
    56   -7.053688894486e-07
    57    1.542464424555e-12
    58    4.325304554833e-03
    59   -2.632113504223e-03
    60   -2.917528719417e-12
    61    4.939364076600e-03
    62   -1.314412518703e-03
    63   -2.356345053489e-08
    64   -7.284387729329e-07
    65   -2.299237571309e-03
    66    7.727755428715e-08
    67   -2.632236489669e-03
    68    4.325498511257e-03
Sym=X
Ene= -0.448658
Spin=Alpha
Occup=1
     1   -1.504976489312e-02
     2    5.820179953061e-02
     3    4.955105059265e-02
     4    1.330896129729e-05
     5    3.921295284549e-02
     6   -1.462830191992e-11
     7   -6.924153394179e-06
     8   -3.592583937036e-02
     9   -2.639790467064e-13
    10   -3.416990734059e-07
    11    3.503874979993e-03
    12   -1.910337556715e-12
    13    1.889591321041e-02
    14    4.012653557453e-12
    15   -9.924042714672e-12
    16    3.272829659200e-02
    17    5.105647140677e-06
    18    1.282861045449e-02
    19   -6.648693447166e-12
    20   -6.441677701163e-12
    21    2.221964278650e-02
    22    2.990790182827e-06
    23    5.381629925882e-03
    24   -1.562013959025e-02
    25    6.031461858847e-07
    26   -4.064206130531e-05
    27   -2.378209747321e-12
    28    3.783982197330e-03
    29    5.184250378437e-08
    30    2.093688712388e-04
    31    2.533782344429e-12
    32    3.751871736899e-04
    33    2.132425314144e-13
    34   -1.504858254573e-13
    35    6.498445899897e-04
    36   -2.825043708572e-08
    37    2.914211120710e-01
    38    1.942861074482e-01
    39    1.967931873702e-02
    40    4.960983803589e-03
    41    9.338498961539e-12
    42    4.396134419909e-03
    43    1.352302456943e-03
    44    2.620944827065e-12
    45    2.913641767815e-01
    46    1.942476844940e-01
    47   -9.810001389032e-07
    48    4.960193805432e-03
    49    1.967607357121e-02
    50    4.192188189913e-07
    51    1.351665230651e-03
    52    4.395000997163e-03
    53    2.913044438290e-01
    54    1.942073465403e-01
    55   -1.967265749806e-02
    56    4.959324501397e-03
    57    8.807071869145e-12
    58   -4.393800499442e-03
    59    1.351030162155e-03
    60    4.468543683567e-12
    61    2.913641769123e-01
    62    1.942476845909e-01
    63   -9.810017429653e-07
    64    4.960193817927e-03
    65   -1.967607358802e-02
    66    4.192185686165e-07
    67    1.351665236230e-03
    68   -4.395000994166e-03
Sym=X
Ene= -0.437435
Spin=Alpha
Occup=1
     1   -4.298884228463e-12
     2    9.635192850136e-12
     3    1.612940144488e-11
     4    3.058333645602e-11
     5    5.547239510595e-12
     6    8.082927026710e-02
     7   -7.073431729048e-10
     8   -4.363126907331e-12
     9   -4.767513119121e-02
    10    5.051650567989e-11
    11   -4.430872538162e-13
    12   -3.964987267732e-03
    13   -3.905886066888e-11
    14   -2.532188747173e-08
    15    3.043427113094e-02
    16    3.144673881363e-11
    17   -4.953201096701e-11
    18   -1.584267953226e-11
    19    2.536936257625e-07
    20    2.017900014194e-02
    21    1.543233607741e-11
    22    3.358172276138e-10
    23    4.035459846746e-13
    24   -3.669036031330e-13
    25   -5.775361046788e-12
    26    5.045749762512e-13
    27    2.966497275697e-03
    28   -6.797700511573e-13
    29    3.738802130731e-12
    30    1.309326606136e-12
    31    4.821352411678e-04
    32    1.599517506485e-13
    33   -5.161475124308e-09
    34   -1.339331118293e-04
    35    1.271544186083e-13
    36    1.739889198392e-13
    37    2.559238649086e-10
    38   -1.436281928792e-10
    39    5.982427840288e-11
    40    4.890584361840e-12
    41   -6.094840539205e-03
    42   -2.700163941903e-10
    43   -1.973510427893e-11
    44    3.608744890515e-03
    45    4.209535049184e-01
    46    2.871173533897e-01
    47   -1.268664025003e-07
    48    4.558428208956e-03
    49    1.980889212246e-02
    50   -1.310803646830e-07
    51    3.525060811556e-03
    52    4.406041697152e-03
    53    2.777418850618e-10
    54    5.096757164621e-10
    55    3.201220315201e-11
    56    5.694734734985e-12
    57   -6.094493865619e-03
    58   -2.747915195496e-10
    59    1.913636227286e-11
    60    3.608706109896e-03
    61   -4.209535052679e-01
    62   -2.871173536440e-01
    63    1.268058566938e-07
    64   -4.558428233236e-03
    65    1.980889215211e-02
    66    1.313468285959e-07
    67   -3.525060814572e-03
    68    4.406041695291e-03
Sym=X
Ene= -0.437435
Spin=Alpha
Occup=1
     1    1.739907607697e-06
     2   -6.923733775693e-06
     3   -7.109623606759e-06
     4    8.082916658777e-02
     5   -4.165292492264e-06
     6   -3.381038883337e-11
     7   -4.767512970285e-02
     8    4.824728106903e-06
     9    7.206788744762e-10
    10   -3.964992832099e-03
    11   -4.453231507099e-07
    12   -5.268116472775e-11
    13   -3.708731736423e-05
    14   -1.443035498319e-12
    15    5.414403489699e-11
    16    1.623341088213e-05
    17    3.043420318810e-02
    18   -2.164813272455e-05
    19    2.278578106089e-12
    20   -3.373428687599e-10
    21    8.019797803191e-06
    22    2.017898085837e-02
    23   -5.685815010603e-07
    24    1.773995264523e-06
    25    2.966484503662e-03
    26   -8.445953811742e-08
    27    6.594125635384e-12
    28   -1.138825576927e-06
    29    4.821379232892e-04
    30   -3.081046988834e-08
    31   -5.525926790473e-12
    32    1.097004990144e-07
    33   -6.580795142826e-14
    34    5.373849976364e-14
    35   -2.030615918315e-07
    36   -1.339329360101e-04
    37    4.210853541046e-01
    38    2.872085433604e-01
    39    1.981515379442e-02
    40    4.561495461004e-03
    41    4.358182939556e-11
    42    4.407045592580e-03
    43    3.524278384771e-03
    44   -1.269811087068e-10
    45   -2.130912827039e-04
    46   -1.456501383792e-04
    47   -6.094669172808e-03
    48   -4.230866224038e-06
    49   -1.092497614405e-05
    50    3.608725093487e-03
    51    7.449240587583e-07
    52   -1.414122399957e-06
    53   -4.208215094269e-01
    54   -2.870260877796e-01
    55    1.980257628744e-02
    56   -4.555343527398e-03
    57    1.860552740054e-11
    58    4.404989107452e-03
    59   -3.525827612220e-03
    60   -1.369728336378e-10
    61   -2.130913054291e-04
    62   -1.456508003969e-04
    63   -6.094669172753e-03
    64   -4.230866196537e-06
    65    1.092488352448e-05
    66    3.608725092236e-03
    67    7.448817834544e-07
    68    1.414672169264e-06
Sym=X
Ene= -0.435116
Spin=Alpha
Occup=1
     1   -2.947461387862e-08
     2    1.103735147586e-07
     3    1.267963637018e-07
     4   -4.449909374133e-05
     5    5.447886417502e-08
     6   -6.120062577313e-11
     7    2.737581758623e-05
     8   -7.934751771381e-08
     9    4.143730099041e-11
    10    2.473328660630e-06
    11    7.131025804957e-09
    12    5.390697553992e-12
    13   -5.806353693117e-02
    14    1.278342699180e-10
    15   -2.230576584474e-11
    16    3.352308779275e-02
    17   -1.651758680664e-05
    18   -3.488898663203e-02
    19   -6.195199901330e-10
    20   -1.697645934443e-11
    21    2.014324881666e-02
    22   -1.159992909770e-05
    23    8.536735357561e-09
    24   -2.778520543915e-08
    25   -1.505792105282e-06
    26    2.726724243560e-09
    27   -1.977444254210e-12
    28    2.436870193433e-08
    29   -2.415252631772e-07
    30    1.076373381309e-09
    31   -8.295623035508e-13
    32    3.066939521926e-04
    33    1.313201380101e-11
    34    1.105397017685e-13
    35   -1.770671002039e-04
    36    6.695838684752e-08
    37    2.990053943321e-01
    38    2.053163976682e-01
    39    1.431117654951e-02
    40    6.110739981861e-03
    41    5.756802265836e-11
    42    1.274778553043e-03
    43   -1.657897294936e-03
    44   -1.970134993356e-10
    45   -2.992466213882e-01
    46   -2.054811830959e-01
    47    3.546938753773e-06
    48   -6.113122056420e-03
    49   -1.432200578957e-02
    50   -1.973300199879e-06
    51    1.655979261458e-03
    52   -1.276803854150e-03
    53    2.994906798280e-01
    54    2.056478702469e-01
    55   -1.433298386947e-02
    56    6.115533980680e-03
    57   -2.969225680486e-11
    58   -1.278827768588e-03
    59   -1.654058384922e-03
    60    1.950688425074e-10
    61   -2.992466207656e-01
    62   -2.054811826800e-01
    63    3.546852069789e-06
    64   -6.113122062233e-03
    65    1.432200577098e-02
    66   -1.972905228295e-06
    67    1.655979265171e-03
    68    1.276803844752e-03
Sym=X
Ene= -0.106519
Spin=Alpha
Occup=1
     1    2.929514652429e-02
     2   -8.726268206995e-02
     3    4.689748012718e-02
     4    1.234134610058e-06
     5    1.606234610983e-01
     6   -6.593717555164e-12
     7    5.182701555339e-07
     8    8.341464208912e-02
     9   -1.267704434385e-11
    10   -5.280485293322e-08
    11    3.388811288516e-02
    12   -7.378590218191e-13
    13    2.234574549592e-01
    14    4.722392150976e-11
    15   -1.871318442170e-11
    16    3.870395928914e-01
    17   -3.642085834424e-06
    18    3.016395400833e-03
    19   -3.349008322265e-12
    20   -9.588518072438e-12
    21    5.224540774269e-03
    22   -1.263780174463e-06
    23   -3.531707530807e-02
    24    8.560022442377e-02
    25   -7.858490403713e-07
    26    5.545891539691e-01
    27   -1.114246818757e-11
    28    1.126314088583e-01
    29   -3.584568018705e-07
    30    3.413217509896e-01
    31   -2.380942984095e-12
    32    1.299985013777e-02
    33   -4.784876993308e-13
    34    1.417135988994e-12
    35    2.251640025722e-02
    36   -5.160095932146e-08
    37   -8.444985503107e-03
    38   -4.246515762738e-03
    39    1.686966411983e-02
    40    3.403880871579e-02
    41   -4.271074619150e-12
    42    2.115233745238e-02
    43    2.694126087995e-02
    44   -1.807688199856e-11
    45   -8.445037417320e-03
    46   -4.247012869698e-03
    47    1.444067369306e-07
    48    3.403693598541e-02
    49    1.686995197940e-02
    50    2.950696055521e-08
    51    2.693942912839e-02
    52    2.115238837842e-02
    53   -8.445081717018e-03
    54   -4.247516479485e-03
    55   -1.687024350283e-02
    56    3.403493182517e-02
    57   -8.787929356840e-13
    58   -2.115245125008e-02
    59    2.693746231763e-02
    60    1.414552996991e-11
    61   -8.445037415124e-03
    62   -4.247012864539e-03
    63    1.444148978748e-07
    64    3.403693597540e-02
    65   -1.686995197741e-02
    66    2.949587536758e-08
    67    2.693942911544e-02
    68   -2.115238837377e-02
Sym=X
Ene= -0.085710
Spin=Alpha
Occup=1
     1   -5.023249234324e-12
     2   -3.062457638290e-11
     3   -2.573602698900e-11
     4   -1.958802379602e-11
     5    1.789035182640e-11
     6   -6.272163055443e-02
     7   -1.237590729936e-10
     8    7.977244643658e-12
     9    4.807187521642e-02
    10    3.826317240889e-11
    11   -4.114856196878e-12
    12    2.941349381809e-02
    13    6.265077434071e-12
    14    1.819852389369e-06
    15    3.806263382106e-01
    16    4.986345387063e-12
    17    4.472058221785e-12
    18   -1.253774954521e-11
    19    4.741412327693e-07
    20    9.770237496051e-02
    21   -3.013637233578e-12
    22    6.622073920573e-11
    23   -2.463241057771e-13
    24    4.009537009898e-12
    25    4.193180622603e-11
    26    2.716775716974e-11
    27    5.231366606387e-01
    28   -3.098652783563e-12
    29    3.241246201015e-11
    30    1.901095501129e-11
    31    3.477758611855e-01
    32    5.336114301138e-13
    33   -1.087950630204e-07
    34   -2.975240998796e-02
    35    8.491592126991e-13
    36   -2.894862399517e-12
    37    5.402491417078e-12
    38   -3.849240168110e-11
    39   -1.392245876691e-12
    40   -1.742148508178e-11
    41   -1.196279183635e-02
    42   -7.640389234779e-11
    43   -2.650638680375e-11
    44   -1.807620181515e-02
    45   -1.236582956585e-02
    46   -5.951313977970e-03
    47   -5.454479522547e-07
    48   -4.595451923447e-02
    49    6.866980375788e-02
    50   -5.753817119741e-07
    51   -4.445846206181e-02
    52    6.376713213462e-02
    53    8.744333075756e-12
    54    5.581614792714e-11
    55    2.900120002139e-11
    56    1.014128088485e-11
    57   -1.196027790386e-02
    58   -4.039371644110e-11
    59    1.762545941445e-11
    60   -1.807371259754e-02
    61    1.236582958188e-02
    62    5.951314004771e-03
    63    5.454425609433e-07
    64    4.595451921932e-02
    65    6.866980378593e-02
    66    5.754562946023e-07
    67    4.445846203985e-02
    68    6.376713216004e-02
Sym=X
Ene= -0.085710
Spin=Alpha
Occup=1
     1   -1.697059352958e-09
     2    1.994218730883e-06
     3    7.694078153442e-07
     4   -6.272169511113e-02
     5    2.497295571181e-06
     6    4.677559466875e-12
     7    4.807191645981e-02
     8   -1.863783201393e-06
     9    9.955951169006e-11
    10    2.941346018949e-02
    11    6.203305264727e-07
    12   -3.282371523732e-11
    13   -1.112728374289e-06
    14    2.962676879687e-12
    15   -3.612674715587e-11
    16    6.234347915996e-06
    17    3.806262977920e-01
    18    1.720577351982e-07
    19   -1.407411190564e-11
    20   -6.125501626384e-11
    21    1.548692734495e-07
    22    9.770235236637e-02
    23   -1.427919023024e-07
    24    2.378154228521e-07
    25    5.231367513605e-01
    26    1.022884496763e-06
    27   -4.536026247540e-11
    28    8.773761495148e-07
    29    3.477759381266e-01
    30    4.932070902041e-07
    31   -2.151264190116e-11
    32    5.530808902937e-08
    33    1.310322498902e-12
    34    1.744845655222e-12
    35   -9.531960973048e-08
    36   -2.975241523199e-02
    37   -1.236756806789e-02
    38   -5.953272648923e-03
    39    6.867637859363e-02
    40   -4.595502250067e-02
    41   -4.270341845164e-13
    42    6.377373942358e-02
    43   -4.445868141273e-02
    44   -3.889860144704e-11
    45   -5.139819621701e-07
    46   -7.411297476096e-07
    47   -1.196156527307e-02
    48   -2.073280425808e-08
    49    1.098367171318e-06
    50   -1.807499225798e-02
    51    5.313396875817e-08
    52    1.009578271440e-06
    53    1.236400117328e-02
    54    5.949225190422e-03
    55    6.866288019985e-02
    56    4.595402106446e-02
    57   -7.541288254773e-12
    58    6.376022924392e-02
    59    4.445826426257e-02
    60   -4.738306446052e-11
    61   -5.139791564955e-07
    62   -7.412069184787e-07
    63   -1.196156527974e-02
    64   -2.075397225980e-08
    65   -1.098357803956e-06
    66   -1.807499225659e-02
    67    5.309395457079e-08
    68   -1.009423815775e-06
Sym=X
Ene= -0.045606
Spin=Alpha
Occup=1
     1    1.655683479264e-02
     2   -1.902600645405e-01
     3   -1.059976174881e-01
     4   -1.016124844439e-05
     5   -2.079641676023e-02
     6   -4.178650279144e-12
     7    6.495168628139e-06
     8    7.320577869473e-02
     9    2.893481845983e-11
    10   -2.225743526065e-06
    11   -2.499903538191e-02
    12   -3.672497578229e-12
    13   -4.526561707884e-02
    14    1.752624996749e-11
    15   -2.453820443338e-11
    16   -7.840048146500e-02
    17    8.255698910724e-07
    18   -1.178394446950e-02
    19    2.570878696236e-11
    20   -4.173381504538e-12
    21   -2.041002089462e-02
    22    8.825826823887e-07
    23   -8.516023166873e-03
    24    3.156681273971e-02
    25    1.542449325726e-05
    26    9.327415356210e-02