[Molden Format]
[Atoms] (Angs)
  C      1    6      1.36681328      0.27876940     -0.00000000
  C      2    6      0.44164871      1.32305947     -0.00000000
  C      3    6     -0.92491848      1.04428421     -0.00000000
  C      4    6     -1.36681328     -0.27876940      0.00000000
  C      5    6     -0.44164871     -1.32305947      0.00000000
  C      6    6      0.92491848     -1.04428421      0.00000000
  H      7    1      0.79022161      2.36600642     -0.00000000
  H      8    1     -1.65420282      1.86735212     -0.00000000
  H      9    1     -0.79022161     -2.36600642      0.00000000
  H     10    1      1.65420282     -1.86735212      0.00000000
  C     11    6     -2.87586071     -0.58678089      0.00000000
  C     12    6     -3.80078811      0.36325183     -0.00000000
  H     13    1     -3.12383414     -1.65668319      0.00000000
  H     14    1     -4.87694183      0.14397476     -0.00000000
  H     15    1     -3.55281468      1.43315415     -0.00000000
  C     16    6      2.87586071      0.58678089     -0.00000000
  C     17    6      3.80078811     -0.36325183      0.00000000
  H     18    1      3.12383414      1.65668319     -0.00000000
  H     19    1      4.87694183     -0.14397476      0.00000000
  H     20    1      3.55281468     -1.43315415      0.00000000
[GTO]
1    0
S    3    1.000000
   7.16168370E+01    1.54328970E-01 
   1.30450960E+01    5.35328140E-01 
   3.53051220E+00    4.44634540E-01 
SP   3    1.000000
   2.94124940E+00   -9.99672300E-02   1.55916270E-01 
   6.83483100E-01    3.99512830E-01   6.07683720E-01 
   2.22289900E-01    7.00115470E-01   3.91957390E-01 

2    0
S    3    1.000000
   7.16168370E+01    1.54328970E-01 
   1.30450960E+01    5.35328140E-01 
   3.53051220E+00    4.44634540E-01 
SP   3    1.000000
   2.94124940E+00   -9.99672300E-02   1.55916270E-01 
   6.83483100E-01    3.99512830E-01   6.07683720E-01 
   2.22289900E-01    7.00115470E-01   3.91957390E-01 

3    0
S    3    1.000000
   7.16168370E+01    1.54328970E-01 
   1.30450960E+01    5.35328140E-01 
   3.53051220E+00    4.44634540E-01 
SP   3    1.000000
   2.94124940E+00   -9.99672300E-02   1.55916270E-01 
   6.83483100E-01    3.99512830E-01   6.07683720E-01 
   2.22289900E-01    7.00115470E-01   3.91957390E-01 

4    0
S    3    1.000000
   7.16168370E+01    1.54328970E-01 
   1.30450960E+01    5.35328140E-01 
   3.53051220E+00    4.44634540E-01 
SP   3    1.000000
   2.94124940E+00   -9.99672300E-02   1.55916270E-01 
   6.83483100E-01    3.99512830E-01   6.07683720E-01 
   2.22289900E-01    7.00115470E-01   3.91957390E-01 

5    0
S    3    1.000000
   7.16168370E+01    1.54328970E-01 
   1.30450960E+01    5.35328140E-01 
   3.53051220E+00    4.44634540E-01 
SP   3    1.000000
   2.94124940E+00   -9.99672300E-02   1.55916270E-01 
   6.83483100E-01    3.99512830E-01   6.07683720E-01 
   2.22289900E-01    7.00115470E-01   3.91957390E-01 

6    0
S    3    1.000000
   7.16168370E+01    1.54328970E-01 
   1.30450960E+01    5.35328140E-01 
   3.53051220E+00    4.44634540E-01 
SP   3    1.000000
   2.94124940E+00   -9.99672300E-02   1.55916270E-01 
   6.83483100E-01    3.99512830E-01   6.07683720E-01 
   2.22289900E-01    7.00115470E-01   3.91957390E-01 

7    0
S    3    1.000000
   3.42525091E+00    1.54328970E-01 
   6.23913730E-01    5.35328140E-01 
   1.68855400E-01    4.44634540E-01 

8    0
S    3    1.000000
   3.42525091E+00    1.54328970E-01 
   6.23913730E-01    5.35328140E-01 
   1.68855400E-01    4.44634540E-01 

9    0
S    3    1.000000
   3.42525091E+00    1.54328970E-01 
   6.23913730E-01    5.35328140E-01 
   1.68855400E-01    4.44634540E-01 

10    0
S    3    1.000000
   3.42525091E+00    1.54328970E-01 
   6.23913730E-01    5.35328140E-01 
   1.68855400E-01    4.44634540E-01 

11    0
S    3    1.000000
   7.16168370E+01    1.54328970E-01 
   1.30450960E+01    5.35328140E-01 
   3.53051220E+00    4.44634540E-01 
SP   3    1.000000
   2.94124940E+00   -9.99672300E-02   1.55916270E-01 
   6.83483100E-01    3.99512830E-01   6.07683720E-01 
   2.22289900E-01    7.00115470E-01   3.91957390E-01 

12    0
S    3    1.000000
   7.16168370E+01    1.54328970E-01 
   1.30450960E+01    5.35328140E-01 
   3.53051220E+00    4.44634540E-01 
SP   3    1.000000
   2.94124940E+00   -9.99672300E-02   1.55916270E-01 
   6.83483100E-01    3.99512830E-01   6.07683720E-01 
   2.22289900E-01    7.00115470E-01   3.91957390E-01 

13    0
S    3    1.000000
   3.42525091E+00    1.54328970E-01 
   6.23913730E-01    5.35328140E-01 
   1.68855400E-01    4.44634540E-01 

14    0
S    3    1.000000
   3.42525091E+00    1.54328970E-01 
   6.23913730E-01    5.35328140E-01 
   1.68855400E-01    4.44634540E-01 

15    0
S    3    1.000000
   3.42525091E+00    1.54328970E-01 
   6.23913730E-01    5.35328140E-01 
   1.68855400E-01    4.44634540E-01 

16    0
S    3    1.000000
   7.16168370E+01    1.54328970E-01 
   1.30450960E+01    5.35328140E-01 
   3.53051220E+00    4.44634540E-01 
SP   3    1.000000
   2.94124940E+00   -9.99672300E-02   1.55916270E-01 
   6.83483100E-01    3.99512830E-01   6.07683720E-01 
   2.22289900E-01    7.00115470E-01   3.91957390E-01 

17    0
S    3    1.000000
   7.16168370E+01    1.54328970E-01 
   1.30450960E+01    5.35328140E-01 
   3.53051220E+00    4.44634540E-01 
SP   3    1.000000
   2.94124940E+00   -9.99672300E-02   1.55916270E-01 
   6.83483100E-01    3.99512830E-01   6.07683720E-01 
   2.22289900E-01    7.00115470E-01   3.91957390E-01 

18    0
S    3    1.000000
   3.42525091E+00    1.54328970E-01 
   6.23913730E-01    5.35328140E-01 
   1.68855400E-01    4.44634540E-01 

19    0
S    3    1.000000
   3.42525091E+00    1.54328970E-01 
   6.23913730E-01    5.35328140E-01 
   1.68855400E-01    4.44634540E-01 

20    0
S    3    1.000000
   3.42525091E+00    1.54328970E-01 
   6.23913730E-01    5.35328140E-01 
   1.68855400E-01    4.44634540E-01 

[MO]
 Sym= X
 Ene= -0.397143
 Spin= Alpha
 Occup= 0.397143
         1    5.690536E-11
         2   -2.059159E-10
         3    6.888045E-10
         4    4.161371E-10
         5   -9.405012E-03
         6   -1.447779E-11
         7    1.736295E-10
         8   -5.527896E-10
         9   -2.452186E-10
        10    4.197297E-01
        11   -2.202336E-11
        12   -5.763985E-11
        13    3.780952E-10
        14    1.816953E-11
        15    4.574390E-01
        16    3.041257E-11
        17   -8.416979E-11
        18    9.654077E-11
        19    1.467105E-10
        20    9.405011E-03
        21   -2.859819E-11
        22    4.071088E-11
        23    1.886182E-10
        24    1.224056E-10
        25   -4.197297E-01
        26   -5.162029E-12
        27    2.283971E-10
        28   -4.443692E-10
        29   -4.857464E-10
        30   -4.574390E-01
        31   -7.235514E-10
        32   -1.493417E-10
        33   -2.334495E-10
        34   -3.519536E-10
        35   -1.815478E-11
        36    6.037462E-11
        37    3.885778E-11
        38   -1.284552E-10
        39   -1.342148E-01
        40    1.691015E-11
        41   -9.092124E-11
        42    1.389220E-10
        43    1.023345E-10
        44   -1.406588E-01
        45    1.901472E-10
        46    4.104777E-11
        47    1.918866E-10
        48   -7.543749E-11
        49    3.566153E-10
        50   -6.405393E-10
        51   -2.539643E-10
        52    1.342148E-01
        53    4.136866E-11
        54   -1.114240E-10
        55    2.466428E-10
        56   -7.778971E-11
        57    1.406588E-01
        58   -3.636455E-10
        59    2.489461E-10
        60   -3.408293E-10
 Sym= X
 Ene= -0.584389
 Spin= Alpha
 Occup= 0.584389
         1    6.465498E-11
         2   -2.433456E-10
         3   -3.252712E-10
         4   -1.758078E-10
         5    1.734099E-01
         6   -2.908627E-12
         7    5.769845E-11
         8   -1.668540E-10
         9   -1.786526E-10
        10    2.616615E-01
        11   -6.771523E-12
        12    5.267430E-11
        13    3.681929E-11
        14    2.270196E-10
        15    6.949709E-03
        16   -4.461483E-11
        17    1.974132E-10
        18   -7.325974E-10
        19   -1.487689E-10
        20   -1.734099E-01
        21    3.913165E-11
        22   -1.910364E-10
        23    1.793901E-10
        24   -1.135102E-10
        25   -2.616615E-01
        26   -5.495241E-11
        27    2.157888E-10
        28   -3.849084E-10
        29    7.672101E-11
        30   -6.949708E-03
        31   -3.214959E-10
        32   -7.441479E-11
        33   -3.110206E-11
        34   -2.016186E-10
        35   -3.798352E-11
        36    1.892800E-10
        37    3.966707E-10
        38    3.761918E-10
        39    3.617555E-01
        40   -2.962827E-11
        41    2.074211E-10
        42   -5.596078E-10
        43   -1.073105E-10
        44    4.496932E-01
        45   -5.180024E-10
        46   -3.230947E-11
        47   -5.502579E-10
        48   -3.552909E-11
        49    2.107004E-11
        50    9.738385E-11
        51    3.386421E-10
        52   -3.617555E-01
        53   -8.179982E-11
        54    2.042457E-10
        55   -2.474890E-10
        56   -1.157424E-10
        57   -4.496932E-01
        58    5.145637E-10
        59   -1.896467E-10
        60    7.966549E-10
