[Molden Format]
[Atoms] (Angs)
  C      1    6      1.36681328      0.27876940     -0.00000000
  C      2    6      0.44164871      1.32305947     -0.00000000
  C      3    6     -0.92491848      1.04428421     -0.00000000
  C      4    6     -1.36681328     -0.27876940      0.00000000
  C      5    6     -0.44164871     -1.32305947      0.00000000
  C      6    6      0.92491848     -1.04428421      0.00000000
  H      7    1      0.79022161      2.36600642     -0.00000000
  H      8    1     -1.65420282      1.86735212     -0.00000000
  H      9    1     -0.79022161     -2.36600642      0.00000000
  H     10    1      1.65420282     -1.86735212      0.00000000
  C     11    6     -2.87586071     -0.58678089      0.00000000
  C     12    6     -3.80078811      0.36325183     -0.00000000
  H     13    1     -3.12383414     -1.65668319      0.00000000
  H     14    1     -4.87694183      0.14397476     -0.00000000
  H     15    1     -3.55281468      1.43315415     -0.00000000
  C     16    6      2.87586071      0.58678089     -0.00000000
  C     17    6      3.80078811     -0.36325183      0.00000000
  H     18    1      3.12383414      1.65668319     -0.00000000
  H     19    1      4.87694183     -0.14397476      0.00000000
  H     20    1      3.55281468     -1.43315415      0.00000000
[GTO]
1    0
S    3    1.000000
   7.16168370E+01    1.54328970E-01 
   1.30450960E+01    5.35328140E-01 
   3.53051220E+00    4.44634540E-01 
SP   3    1.000000
   2.94124940E+00   -9.99672300E-02   1.55916270E-01 
   6.83483100E-01    3.99512830E-01   6.07683720E-01 
   2.22289900E-01    7.00115470E-01   3.91957390E-01 

2    0
S    3    1.000000
   7.16168370E+01    1.54328970E-01 
   1.30450960E+01    5.35328140E-01 
   3.53051220E+00    4.44634540E-01 
SP   3    1.000000
   2.94124940E+00   -9.99672300E-02   1.55916270E-01 
   6.83483100E-01    3.99512830E-01   6.07683720E-01 
   2.22289900E-01    7.00115470E-01   3.91957390E-01 

3    0
S    3    1.000000
   7.16168370E+01    1.54328970E-01 
   1.30450960E+01    5.35328140E-01 
   3.53051220E+00    4.44634540E-01 
SP   3    1.000000
   2.94124940E+00   -9.99672300E-02   1.55916270E-01 
   6.83483100E-01    3.99512830E-01   6.07683720E-01 
   2.22289900E-01    7.00115470E-01   3.91957390E-01 

4    0
S    3    1.000000
   7.16168370E+01    1.54328970E-01 
   1.30450960E+01    5.35328140E-01 
   3.53051220E+00    4.44634540E-01 
SP   3    1.000000
   2.94124940E+00   -9.99672300E-02   1.55916270E-01 
   6.83483100E-01    3.99512830E-01   6.07683720E-01 
   2.22289900E-01    7.00115470E-01   3.91957390E-01 

5    0
S    3    1.000000
   7.16168370E+01    1.54328970E-01 
   1.30450960E+01    5.35328140E-01 
   3.53051220E+00    4.44634540E-01 
SP   3    1.000000
   2.94124940E+00   -9.99672300E-02   1.55916270E-01 
   6.83483100E-01    3.99512830E-01   6.07683720E-01 
   2.22289900E-01    7.00115470E-01   3.91957390E-01 

6    0
S    3    1.000000
   7.16168370E+01    1.54328970E-01 
   1.30450960E+01    5.35328140E-01 
   3.53051220E+00    4.44634540E-01 
SP   3    1.000000
   2.94124940E+00   -9.99672300E-02   1.55916270E-01 
   6.83483100E-01    3.99512830E-01   6.07683720E-01 
   2.22289900E-01    7.00115470E-01   3.91957390E-01 

7    0
S    3    1.000000
   3.42525091E+00    1.54328970E-01 
   6.23913730E-01    5.35328140E-01 
   1.68855400E-01    4.44634540E-01 

8    0
S    3    1.000000
   3.42525091E+00    1.54328970E-01 
   6.23913730E-01    5.35328140E-01 
   1.68855400E-01    4.44634540E-01 

9    0
S    3    1.000000
   3.42525091E+00    1.54328970E-01 
   6.23913730E-01    5.35328140E-01 
   1.68855400E-01    4.44634540E-01 

10    0
S    3    1.000000
   3.42525091E+00    1.54328970E-01 
   6.23913730E-01    5.35328140E-01 
   1.68855400E-01    4.44634540E-01 

11    0
S    3    1.000000
   7.16168370E+01    1.54328970E-01 
   1.30450960E+01    5.35328140E-01 
   3.53051220E+00    4.44634540E-01 
SP   3    1.000000
   2.94124940E+00   -9.99672300E-02   1.55916270E-01 
   6.83483100E-01    3.99512830E-01   6.07683720E-01 
   2.22289900E-01    7.00115470E-01   3.91957390E-01 

12    0
S    3    1.000000
   7.16168370E+01    1.54328970E-01 
   1.30450960E+01    5.35328140E-01 
   3.53051220E+00    4.44634540E-01 
SP   3    1.000000
   2.94124940E+00   -9.99672300E-02   1.55916270E-01 
   6.83483100E-01    3.99512830E-01   6.07683720E-01 
   2.22289900E-01    7.00115470E-01   3.91957390E-01 

13    0
S    3    1.000000
   3.42525091E+00    1.54328970E-01 
   6.23913730E-01    5.35328140E-01 
   1.68855400E-01    4.44634540E-01 

14    0
S    3    1.000000
   3.42525091E+00    1.54328970E-01 
   6.23913730E-01    5.35328140E-01 
   1.68855400E-01    4.44634540E-01 

15    0
S    3    1.000000
   3.42525091E+00    1.54328970E-01 
   6.23913730E-01    5.35328140E-01 
   1.68855400E-01    4.44634540E-01 

16    0
S    3    1.000000
   7.16168370E+01    1.54328970E-01 
   1.30450960E+01    5.35328140E-01 
   3.53051220E+00    4.44634540E-01 
SP   3    1.000000
   2.94124940E+00   -9.99672300E-02   1.55916270E-01 
   6.83483100E-01    3.99512830E-01   6.07683720E-01 
   2.22289900E-01    7.00115470E-01   3.91957390E-01 

17    0
S    3    1.000000
   7.16168370E+01    1.54328970E-01 
   1.30450960E+01    5.35328140E-01 
   3.53051220E+00    4.44634540E-01 
SP   3    1.000000
   2.94124940E+00   -9.99672300E-02   1.55916270E-01 
   6.83483100E-01    3.99512830E-01   6.07683720E-01 
   2.22289900E-01    7.00115470E-01   3.91957390E-01 

18    0
S    3    1.000000
   3.42525091E+00    1.54328970E-01 
   6.23913730E-01    5.35328140E-01 
   1.68855400E-01    4.44634540E-01 

19    0
S    3    1.000000
   3.42525091E+00    1.54328970E-01 
   6.23913730E-01    5.35328140E-01 
   1.68855400E-01    4.44634540E-01 

20    0
S    3    1.000000
   3.42525091E+00    1.54328970E-01 
   6.23913730E-01    5.35328140E-01 
   1.68855400E-01    4.44634540E-01 

[MO]
 Sym= X
 Ene= 0.584389
 Spin= Alpha
 Occup= 0.584389
         1    5.034266E-11
         2   -3.025122E-10
         3    1.481412E-10
         4    1.941184E-11
         5   -1.127486E-01
         6    4.361744E-12
         7    8.294465E-11
         8    4.598147E-10
         9    1.079559E-10
        10    6.057866E-01
        11   -7.560390E-11
        12    4.669361E-10
        13    7.020545E-12
        14   -8.678277E-11
        15   -4.638041E-01
        16    2.779495E-11
        17   -1.902734E-10
        18    1.587275E-10
        19   -2.285167E-10
        20   -1.127486E-01
        21   -3.055889E-11
        22    2.146904E-10
        23    8.545187E-11
        24   -2.006174E-10
        25    6.057866E-01
        26    2.575936E-11
        27    1.671284E-12
        28    4.845128E-10
        29    1.422768E-10
        30   -4.638041E-01
        31   -6.149295E-10
        32    1.051502E-11
        33   -7.738531E-11
        34   -3.144016E-10
        35   -3.683067E-11
        36    2.138644E-10
        37    9.546522E-11
        38   -6.940089E-11
        39   -1.316863E-01
        40   -2.971971E-11
        41    1.988897E-10
        42   -1.208032E-10
        43    4.404681E-12
        44    1.851750E-01
        45   -1.700181E-10
        46   -2.027311E-10
        47   -1.711328E-10
        48    2.869864E-12
        49   -3.142459E-11
        50    5.784034E-11
        51   -1.659193E-11
        52   -1.316863E-01
        53   -2.173066E-11
        54    1.619415E-10
        55   -1.109826E-11
        56   -1.353324E-10
        57    1.851750E-01
        58    1.113350E-10
        59   -9.200898E-11
        60   -3.080271E-10
 Sym= X
 Ene= 0.397143
 Spin= Alpha
 Occup= 0.397143
         1   -3.317507E-13
         2   -1.010239E-11
         3   -2.006397E-10
         4   -1.271782E-10
         5   -1.974885E-01
         6    2.295894E-12
         7   -5.890886E-12
         8   -9.072362E-11
         9   -2.092467E-11
        10   -4.531444E-02
        11   -1.715441E-11
        12    2.144537E-11
        13   -1.386446E-10
        14    4.650380E-11
        15    3.429030E-01
        16    2.694394E-11
        17   -1.658566E-10
        18    2.792033E-10
        19    1.404789E-10
        20   -1.974885E-01
        21    5.195120E-12
        22   -1.302828E-11
        23   -4.332822E-11
        24    7.108265E-11
        25   -4.531444E-02
        26   -7.087929E-12
        27   -6.505875E-11
        28    7.864199E-11
        29    3.514980E-11
        30    3.429030E-01
        31    7.303349E-11
        32   -3.981844E-11
        33    8.548170E-11
        34    2.215818E-10
        35   -6.227938E-11
        36    3.495774E-10
        37    1.053890E-10
        38   -1.370196E-10
        39   -4.348891E-01
        40   -6.744253E-11
        41    4.599038E-10
        42   -3.577349E-10
        43   -2.243816E-11
        44    5.255764E-01
        45   -1.817146E-10
        46   -5.570782E-10
        47   -3.858196E-10
        48   -1.115312E-11
        49    1.862347E-11
        50   -2.804123E-11
        51   -6.279122E-11
        52   -4.348891E-01
        53   -5.366715E-11
        54    4.347742E-10
        55   -6.672764E-11
        56   -2.068453E-10
        57    5.255764E-01
        58    1.692921E-10
        59   -1.730620E-10
        60   -9.002024E-10
